/*--------------------------------*- C++ -*----------------------------------*\
| =========                 |                                                 |
| \\      /  F ield         | OpenFOAM: The Open Source CFD Toolbox           |
|  \\    /   O peration     | Version:  v1806                                 |
|   \\  /    A nd           | Web:      www.OpenFOAM.com                      |
|    \\/     M anipulation  |                                                 |
\*---------------------------------------------------------------------------*/
FoamFile
{
    version     2.0;
    format      ascii;
    class       vectorField;
    location    "0.001";
    object      currentcloudofpoints;
}
// * * * * * * * * * * * * * * * * * * * * * * * * * * * * * * * * * * * * * //


1416
(
(0.749998 0.499701 0)
(0.250002 0.500299 0)
(0.812502 0.499724 0)
(0.187498 0.500276 0)
(0.5 0.749998 0)
(0.5 0.250002 0)
(0.5 0.812502 0)
(0.5 0.187498 0)
(0.812391 0.508042 0)
(0.812059 0.516355 0)
(0.811506 0.524656 0)
(0.810732 0.532939 0)
(0.809737 0.541198 0)
(0.808523 0.549428 0)
(0.807091 0.557623 0)
(0.805441 0.565776 0)
(0.803574 0.573882 0)
(0.801492 0.581936 0)
(0.799196 0.589931 0)
(0.796689 0.597863 0)
(0.793971 0.605725 0)
(0.791044 0.613511 0)
(0.787912 0.621217 0)
(0.784575 0.628837 0)
(0.781037 0.636365 0)
(0.777299 0.643797 0)
(0.773365 0.651127 0)
(0.769237 0.658349 0)
(0.764918 0.665459 0)
(0.760412 0.672452 0)
(0.755721 0.679323 0)
(0.750849 0.686066 0)
(0.745799 0.692678 0)
(0.740574 0.699153 0)
(0.735179 0.705488 0)
(0.729618 0.711676 0)
(0.723894 0.717716 0)
(0.718011 0.7236 0)
(0.711973 0.729327 0)
(0.705786 0.734892 0)
(0.699452 0.74029 0)
(0.692977 0.745518 0)
(0.686365 0.750573 0)
(0.679622 0.75545 0)
(0.672751 0.760147 0)
(0.665757 0.76466 0)
(0.658646 0.768986 0)
(0.651423 0.773121 0)
(0.644092 0.777064 0)
(0.636659 0.78081 0)
(0.629129 0.784358 0)
(0.621508 0.787705 0)
(0.613801 0.790848 0)
(0.606012 0.793786 0)
(0.598149 0.796516 0)
(0.590217 0.799036 0)
(0.58222 0.801344 0)
(0.574165 0.803439 0)
(0.566057 0.80532 0)
(0.557903 0.806984 0)
(0.549707 0.808432 0)
(0.541477 0.80966 0)
(0.533217 0.81067 0)
(0.524933 0.811459 0)
(0.516632 0.812028 0)
(0.508319 0.812376 0)
(0.491681 0.812407 0)
(0.483368 0.812091 0)
(0.475067 0.811553 0)
(0.466783 0.810794 0)
(0.458523 0.809815 0)
(0.450293 0.808615 0)
(0.442097 0.807197 0)
(0.433943 0.805561 0)
(0.425835 0.803708 0)
(0.41778 0.80164 0)
(0.409783 0.799357 0)
(0.401851 0.796862 0)
(0.393988 0.794156 0)
(0.386199 0.791241 0)
(0.378492 0.788119 0)
(0.370871 0.784792 0)
(0.363341 0.781263 0)
(0.355908 0.777535 0)
(0.348577 0.773609 0)
(0.341354 0.769488 0)
(0.334243 0.765177 0)
(0.327249 0.760677 0)
(0.320378 0.755992 0)
(0.313635 0.751124 0)
(0.307023 0.746079 0)
(0.300548 0.740859 0)
(0.294214 0.735467 0)
(0.288027 0.729909 0)
(0.281989 0.724187 0)
(0.276106 0.718306 0)
(0.270382 0.71227 0)
(0.264821 0.706084 0)
(0.259426 0.699751 0)
(0.254201 0.693276 0)
(0.249151 0.686665 0)
(0.244279 0.679921 0)
(0.239588 0.673049 0)
(0.235082 0.666055 0)
(0.230763 0.658943 0)
(0.226635 0.651719 0)
(0.222701 0.644387 0)
(0.218963 0.636953 0)
(0.215425 0.629421 0)
(0.212088 0.621799 0)
(0.208956 0.61409 0)
(0.206029 0.6063 0)
(0.203311 0.598436 0)
(0.200804 0.590502 0)
(0.198508 0.582504 0)
(0.196426 0.574447 0)
(0.194559 0.566339 0)
(0.192909 0.558183 0)
(0.191477 0.549987 0)
(0.190263 0.541755 0)
(0.189268 0.533495 0)
(0.188494 0.52521 0)
(0.187941 0.516909 0)
(0.187609 0.508596 0)
(0.187609 0.491958 0)
(0.187941 0.483645 0)
(0.188494 0.475344 0)
(0.189268 0.467061 0)
(0.190263 0.458802 0)
(0.191477 0.450572 0)
(0.192909 0.442377 0)
(0.194559 0.434224 0)
(0.196426 0.426118 0)
(0.198508 0.418064 0)
(0.200804 0.410069 0)
(0.203311 0.402137 0)
(0.206029 0.394275 0)
(0.208956 0.386489 0)
(0.212088 0.378783 0)
(0.215425 0.371163 0)
(0.218963 0.363635 0)
(0.222701 0.356203 0)
(0.226635 0.348873 0)
(0.230763 0.341651 0)
(0.235082 0.334541 0)
(0.239588 0.327548 0)
(0.244279 0.320677 0)
(0.249151 0.313934 0)
(0.254201 0.307322 0)
(0.259426 0.300847 0)
(0.264821 0.294512 0)
(0.270382 0.288324 0)
(0.276106 0.282284 0)
(0.281989 0.2764 0)
(0.288027 0.270673 0)
(0.294214 0.265108 0)
(0.300548 0.25971 0)
(0.307023 0.254482 0)
(0.313635 0.249427 0)
(0.320378 0.24455 0)
(0.327249 0.239853 0)
(0.334243 0.23534 0)
(0.341354 0.231014 0)
(0.348577 0.226879 0)
(0.355908 0.222936 0)
(0.363341 0.21919 0)
(0.370871 0.215642 0)
(0.378492 0.212295 0)
(0.386199 0.209152 0)
(0.393988 0.206214 0)
(0.401851 0.203484 0)
(0.409783 0.200964 0)
(0.41778 0.198656 0)
(0.425835 0.196561 0)
(0.433943 0.19468 0)
(0.442097 0.193016 0)
(0.450293 0.191568 0)
(0.458523 0.19034 0)
(0.466783 0.18933 0)
(0.475067 0.188541 0)
(0.483368 0.187972 0)
(0.491681 0.187624 0)
(0.508319 0.187593 0)
(0.516632 0.187909 0)
(0.524933 0.188447 0)
(0.533217 0.189206 0)
(0.541477 0.190185 0)
(0.549707 0.191385 0)
(0.557903 0.192803 0)
(0.566057 0.194439 0)
(0.574165 0.196292 0)
(0.58222 0.19836 0)
(0.590217 0.200643 0)
(0.598149 0.203138 0)
(0.606012 0.205844 0)
(0.613801 0.208759 0)
(0.621508 0.211881 0)
(0.629129 0.215208 0)
(0.636659 0.218737 0)
(0.644092 0.222465 0)
(0.651423 0.226391 0)
(0.658646 0.230512 0)
(0.665757 0.234823 0)
(0.672751 0.239323 0)
(0.679622 0.244008 0)
(0.686365 0.248876 0)
(0.692977 0.253921 0)
(0.699452 0.259141 0)
(0.705786 0.264533 0)
(0.711973 0.270091 0)
(0.718011 0.275813 0)
(0.723894 0.281694 0)
(0.729618 0.28773 0)
(0.735179 0.293916 0)
(0.740574 0.300249 0)
(0.745799 0.306724 0)
(0.750849 0.313335 0)
(0.755721 0.320079 0)
(0.760412 0.326951 0)
(0.764918 0.333945 0)
(0.769237 0.341057 0)
(0.773365 0.348281 0)
(0.777299 0.355613 0)
(0.781037 0.363047 0)
(0.784575 0.370579 0)
(0.787912 0.378201 0)
(0.791044 0.38591 0)
(0.793971 0.3937 0)
(0.796689 0.401564 0)
(0.799196 0.409498 0)
(0.801492 0.417496 0)
(0.803574 0.425553 0)
(0.805441 0.433661 0)
(0.807091 0.441817 0)
(0.808523 0.450013 0)
(0.809737 0.458245 0)
(0.810732 0.466505 0)
(0.811506 0.47479 0)
(0.812059 0.483091 0)
(0.812391 0.491404 0)
(0.749909 0.506356 0)
(0.749643 0.513006 0)
(0.749201 0.519647 0)
(0.748581 0.526274 0)
(0.747786 0.532882 0)
(0.746815 0.539467 0)
(0.745669 0.546023 0)
(0.744349 0.552546 0)
(0.742855 0.559032 0)
(0.74119 0.565477 0)
(0.739354 0.571874 0)
(0.737347 0.578221 0)
(0.735173 0.584511 0)
(0.732832 0.590742 0)
(0.730326 0.596909 0)
(0.727657 0.603006 0)
(0.724826 0.609031 0)
(0.721836 0.614978 0)
(0.718689 0.620844 0)
(0.715387 0.626624 0)
(0.711932 0.632314 0)
(0.708327 0.63791 0)
(0.704574 0.643409 0)
(0.700677 0.648806 0)
(0.696637 0.654098 0)
(0.692457 0.65928 0)
(0.688142 0.66435 0)
(0.683692 0.669303 0)
(0.679113 0.674137 0)
(0.674407 0.678847 0)
(0.669577 0.683431 0)
(0.664627 0.687884 0)
(0.65956 0.692205 0)
(0.65438 0.69639 0)
(0.649091 0.700435 0)
(0.643696 0.704339 0)
(0.638199 0.708099 0)
(0.632605 0.711711 0)
(0.626916 0.715173 0)
(0.621137 0.718483 0)
(0.615273 0.721638 0)
(0.609326 0.724637 0)
(0.603303 0.727476 0)
(0.597206 0.730155 0)
(0.59104 0.73267 0)
(0.584809 0.735021 0)
(0.578519 0.737206 0)
(0.572173 0.739222 0)
(0.565775 0.74107 0)
(0.559331 0.742746 0)
(0.552845 0.744251 0)
(0.546322 0.745583 0)
(0.539766 0.746741 0)
(0.533181 0.747724 0)
(0.526573 0.748532 0)
(0.519946 0.749163 0)
(0.513305 0.749618 0)
(0.506655 0.749897 0)
(0.493345 0.749922 0)
(0.486695 0.749668 0)
(0.480054 0.749238 0)
(0.473427 0.748631 0)
(0.466819 0.747848 0)
(0.460234 0.746889 0)
(0.453678 0.745755 0)
(0.447155 0.744446 0)
(0.440669 0.742964 0)
(0.434225 0.74131 0)
(0.427827 0.739485 0)
(0.421481 0.737489 0)
(0.415191 0.735325 0)
(0.40896 0.732994 0)
(0.402794 0.730498 0)
(0.396697 0.727838 0)
(0.390674 0.725016 0)
(0.384727 0.722035 0)
(0.378863 0.718896 0)
(0.373084 0.715601 0)
(0.367395 0.712154 0)
(0.361801 0.708556 0)
(0.356304 0.704809 0)
(0.350909 0.700918 0)
(0.34562 0.696884 0)
(0.34044 0.69271 0)
(0.335373 0.688399 0)
(0.330423 0.683954 0)
(0.325593 0.679379 0)
(0.320887 0.674677 0)
(0.316308 0.669851 0)
(0.311858 0.664904 0)
(0.307543 0.65984 0)
(0.303363 0.654663 0)
(0.299323 0.649376 0)
(0.295426 0.643983 0)
(0.291673 0.638489 0)
(0.288068 0.632895 0)
(0.284613 0.627208 0)
(0.281311 0.621431 0)
(0.278164 0.615567 0)
(0.275174 0.609622 0)
(0.272343 0.603599 0)
(0.269674 0.597503 0)
(0.267168 0.591337 0)
(0.264827 0.585107 0)
(0.262653 0.578817 0)
(0.260646 0.572471 0)
(0.25881 0.566074 0)
(0.257145 0.559631 0)
(0.255651 0.553145 0)
(0.254331 0.546621 0)
(0.253185 0.540065 0)
(0.252214 0.533481 0)
(0.251419 0.526873 0)
(0.250799 0.520246 0)
(0.250357 0.513605 0)
(0.250091 0.506954 0)
(0.250091 0.493644 0)
(0.250357 0.486994 0)
(0.250799 0.480353 0)
(0.251419 0.473726 0)
(0.252214 0.467118 0)
(0.253185 0.460533 0)
(0.254331 0.453977 0)
(0.255651 0.447454 0)
(0.257145 0.440968 0)
(0.25881 0.434523 0)
(0.260646 0.428126 0)
(0.262653 0.421779 0)
(0.264827 0.415489 0)
(0.267168 0.409258 0)
(0.269674 0.403091 0)
(0.272343 0.396994 0)
(0.275174 0.390969 0)
(0.278164 0.385022 0)
(0.281311 0.379156 0)
(0.284613 0.373376 0)
(0.288068 0.367686 0)
(0.291673 0.36209 0)
(0.295426 0.356591 0)
(0.299323 0.351194 0)
(0.303363 0.345902 0)
(0.307543 0.34072 0)
(0.311858 0.33565 0)
(0.316308 0.330697 0)
(0.320887 0.325863 0)
(0.325593 0.321153 0)
(0.330423 0.316569 0)
(0.335373 0.312116 0)
(0.34044 0.307795 0)
(0.34562 0.30361 0)
(0.350909 0.299565 0)
(0.356304 0.295661 0)
(0.361801 0.291901 0)
(0.367395 0.288289 0)
(0.373084 0.284827 0)
(0.378863 0.281517 0)
(0.384727 0.278362 0)
(0.390674 0.275363 0)
(0.396697 0.272524 0)
(0.402794 0.269845 0)
(0.40896 0.26733 0)
(0.415191 0.264979 0)
(0.421481 0.262794 0)
(0.427827 0.260778 0)
(0.434225 0.25893 0)
(0.440669 0.257254 0)
(0.447155 0.255749 0)
(0.453678 0.254417 0)
(0.460234 0.253259 0)
(0.466819 0.252276 0)
(0.473427 0.251468 0)
(0.480054 0.250837 0)
(0.486695 0.250382 0)
(0.493345 0.250103 0)
(0.506655 0.250078 0)
(0.513305 0.250332 0)
(0.519946 0.250762 0)
(0.526573 0.251369 0)
(0.533181 0.252152 0)
(0.539766 0.253111 0)
(0.546322 0.254245 0)
(0.552845 0.255554 0)
(0.559331 0.257036 0)
(0.565775 0.25869 0)
(0.572173 0.260515 0)
(0.578519 0.262511 0)
(0.584809 0.264675 0)
(0.59104 0.267006 0)
(0.597206 0.269502 0)
(0.603303 0.272162 0)
(0.609326 0.274984 0)
(0.615273 0.277965 0)
(0.621137 0.281104 0)
(0.626916 0.284399 0)
(0.632605 0.287846 0)
(0.638199 0.291444 0)
(0.643696 0.295191 0)
(0.649091 0.299082 0)
(0.65438 0.303116 0)
(0.65956 0.30729 0)
(0.664627 0.311601 0)
(0.669577 0.316046 0)
(0.674407 0.320621 0)
(0.679113 0.325323 0)
(0.683692 0.330149 0)
(0.688142 0.335096 0)
(0.692457 0.34016 0)
(0.696637 0.345337 0)
(0.700677 0.350624 0)
(0.704574 0.356017 0)
(0.708327 0.361511 0)
(0.711932 0.367105 0)
(0.715387 0.372792 0)
(0.718689 0.378569 0)
(0.721836 0.384433 0)
(0.724826 0.390378 0)
(0.727657 0.396401 0)
(0.730326 0.402497 0)
(0.732832 0.408663 0)
(0.735173 0.414893 0)
(0.737347 0.421183 0)
(0.739354 0.427529 0)
(0.74119 0.433926 0)
(0.742855 0.440369 0)
(0.744349 0.446855 0)
(0.745669 0.453379 0)
(0.746815 0.459935 0)
(0.747786 0.466519 0)
(0.748581 0.473127 0)
(0.749201 0.479754 0)
(0.749643 0.486395 0)
(0.749909 0.493046 0)
(0.5 0.800001 0)
(0.5 0.7875 0)
(0.5 0.775 0)
(0.5 0.762499 0)
(0.762499 0.499702 0)
(0.775 0.499704 0)
(0.7875 0.499709 0)
(0.800001 0.499715 0)
(0.5 0.237501 0)
(0.5 0.225 0)
(0.5 0.2125 0)
(0.5 0.199999 0)
(0.237501 0.500298 0)
(0.225 0.500296 0)
(0.2125 0.500291 0)
(0.199999 0.500285 0)
(0.492014 0.79991 0)
(0.492347 0.787413 0)
(0.492679 0.774916 0)
(0.493012 0.762419 0)
(0.484033 0.799606 0)
(0.484699 0.787122 0)
(0.485364 0.774638 0)
(0.486029 0.762153 0)
(0.476064 0.79909 0)
(0.477061 0.786627 0)
(0.478059 0.774164 0)
(0.479056 0.761701 0)
(0.468112 0.798361 0)
(0.469441 0.785929 0)
(0.470769 0.773497 0)
(0.472098 0.761064 0)
(0.460182 0.797421 0)
(0.461841 0.785028 0)
(0.4635 0.772635 0)
(0.46516 0.760241 0)
(0.452281 0.79627 0)
(0.454269 0.783925 0)
(0.456258 0.77158 0)
(0.458246 0.759234 0)
(0.444413 0.794909 0)
(0.446729 0.78262 0)
(0.449046 0.770332 0)
(0.451362 0.758043 0)
(0.436585 0.793338 0)
(0.439227 0.781115 0)
(0.44187 0.768893 0)
(0.444512 0.756669 0)
(0.428802 0.79156 0)
(0.431769 0.779411 0)
(0.434735 0.767262 0)
(0.437702 0.755113 0)
(0.421069 0.789574 0)
(0.424358 0.777508 0)
(0.427647 0.765442 0)
(0.430936 0.753376 0)
(0.413392 0.787383 0)
(0.417001 0.775408 0)
(0.42061 0.763434 0)
(0.424218 0.751459 0)
(0.405777 0.784987 0)
(0.409703 0.773113 0)
(0.413629 0.761239 0)
(0.417555 0.749364 0)
(0.398228 0.78239 0)
(0.402469 0.770624 0)
(0.406709 0.758858 0)
(0.41095 0.747092 0)
(0.390752 0.779592 0)
(0.395304 0.767942 0)
(0.399856 0.756293 0)
(0.404408 0.744644 0)
(0.383353 0.776595 0)
(0.388213 0.765071 0)
(0.393073 0.753547 0)
(0.397934 0.742022 0)
(0.376036 0.773402 0)
(0.381202 0.762011 0)
(0.386367 0.75062 0)
(0.391532 0.739229 0)
(0.368808 0.770014 0)
(0.374274 0.758765 0)
(0.379741 0.747516 0)
(0.385207 0.736266 0)
(0.361672 0.766435 0)
(0.367436 0.755335 0)
(0.3732 0.744236 0)
(0.378963 0.733135 0)
(0.354635 0.762667 0)
(0.360692 0.751724 0)
(0.366749 0.740782 0)
(0.372806 0.729839 0)
(0.3477 0.758712 0)
(0.354046 0.747934 0)
(0.360392 0.737157 0)
(0.366738 0.726379 0)
(0.340874 0.754573 0)
(0.347504 0.743968 0)
(0.354134 0.733364 0)
(0.360765 0.722759 0)
(0.33416 0.750253 0)
(0.34107 0.739829 0)
(0.34798 0.729406 0)
(0.35489 0.718981 0)
(0.327564 0.745756 0)
(0.334749 0.73552 0)
(0.341934 0.725284 0)
(0.349119 0.715047 0)
(0.32109 0.741084 0)
(0.328545 0.731043 0)
(0.335999 0.721002 0)
(0.343454 0.71096 0)
(0.314742 0.736241 0)
(0.322462 0.726402 0)
(0.330181 0.716564 0)
(0.3379 0.706724 0)
(0.308526 0.73123 0)
(0.316505 0.721601 0)
(0.324483 0.711971 0)
(0.332461 0.702341 0)
(0.302446 0.726055 0)
(0.310678 0.716642 0)
(0.318909 0.707229 0)
(0.327141 0.697814 0)
(0.296506 0.720719 0)
(0.304986 0.711529 0)
(0.313464 0.702339 0)
(0.321944 0.693147 0)
(0.29071 0.715227 0)
(0.299431 0.706266 0)
(0.308151 0.697305 0)
(0.316872 0.688343 0)
(0.285063 0.709582 0)
(0.294019 0.700857 0)
(0.302975 0.692131 0)
(0.311931 0.683405 0)
(0.279567 0.703788 0)
(0.288753 0.695305 0)
(0.297937 0.686821 0)
(0.307122 0.678337 0)
(0.274228 0.69785 0)
(0.283636 0.689614 0)
(0.293043 0.681379 0)
(0.302451 0.673142 0)
(0.269049 0.691771 0)
(0.278673 0.683789 0)
(0.288296 0.675808 0)
(0.297919 0.667824 0)
(0.264034 0.685556 0)
(0.273867 0.677834 0)
(0.283698 0.670112 0)
(0.293531 0.662388 0)
(0.259186 0.679209 0)
(0.269221 0.671753 0)
(0.279254 0.664295 0)
(0.289289 0.656836 0)
(0.254508 0.672736 0)
(0.264738 0.665549 0)
(0.274967 0.658362 0)
(0.285196 0.651173 0)
(0.250005 0.66614 0)
(0.260422 0.659229 0)
(0.270839 0.652317 0)
(0.281256 0.645403 0)
(0.245679 0.659426 0)
(0.256276 0.652795 0)
(0.266873 0.646163 0)
(0.277471 0.63953 0)
(0.241533 0.652599 0)
(0.252303 0.646253 0)
(0.263073 0.639906 0)
(0.273843 0.633558 0)
(0.23757 0.645664 0)
(0.248506 0.639608 0)
(0.25944 0.63355 0)
(0.270375 0.627491 0)
(0.233794 0.638626 0)
(0.244886 0.632863 0)
(0.255978 0.627099 0)
(0.267071 0.621334 0)
(0.230206 0.631489 0)
(0.241448 0.626025 0)
(0.252689 0.620559 0)
(0.263931 0.615091 0)
(0.226809 0.62426 0)
(0.238193 0.619097 0)
(0.249576 0.613933 0)
(0.260959 0.608767 0)
(0.223605 0.616943 0)
(0.235123 0.612085 0)
(0.246639 0.607226 0)
(0.258157 0.602365 0)
(0.220598 0.609543 0)
(0.232241 0.604994 0)
(0.243883 0.600443 0)
(0.255525 0.595891 0)
(0.217789 0.602065 0)
(0.229549 0.597828 0)
(0.241308 0.59359 0)
(0.253067 0.589349 0)
(0.21518 0.594515 0)
(0.227048 0.590593 0)
(0.238916 0.58667 0)
(0.250784 0.582744 0)
(0.212772 0.586899 0)
(0.224741 0.583294 0)
(0.236709 0.579688 0)
(0.248678 0.576081 0)
(0.210568 0.579221 0)
(0.222629 0.575937 0)
(0.234689 0.572651 0)
(0.24675 0.569364 0)
(0.20857 0.571487 0)
(0.220714 0.568526 0)
(0.232857 0.565562 0)
(0.245001 0.562597 0)
(0.206778 0.563703 0)
(0.218996 0.561066 0)
(0.231214 0.558427 0)
(0.243433 0.555787 0)
(0.205193 0.555874 0)
(0.217478 0.553564 0)
(0.229762 0.551251 0)
(0.242047 0.548937 0)
(0.203818 0.548006 0)
(0.21616 0.546023 0)
(0.228501 0.544039 0)
(0.240843 0.542053 0)
(0.202653 0.540104 0)
(0.215043 0.538451 0)
(0.227433 0.536796 0)
(0.239824 0.535139 0)
(0.201698 0.532174 0)
(0.214128 0.530851 0)
(0.226558 0.529527 0)
(0.238988 0.528201 0)
(0.200955 0.524221 0)
(0.213416 0.52323 0)
(0.225877 0.522237 0)
(0.238338 0.521242 0)
(0.200424 0.516252 0)
(0.212907 0.515593 0)
(0.22539 0.514932 0)
(0.237873 0.514269 0)
(0.200105 0.508271 0)
(0.212602 0.507945 0)
(0.225098 0.507616 0)
(0.237594 0.507286 0)
(0.237594 0.493311 0)
(0.237873 0.486328 0)
(0.238338 0.479355 0)
(0.238988 0.472397 0)
(0.239824 0.465458 0)
(0.240843 0.458545 0)
(0.242047 0.451661 0)
(0.243433 0.444811 0)
(0.245001 0.438001 0)
(0.24675 0.431235 0)
(0.248678 0.424518 0)
(0.250784 0.417854 0)
(0.253067 0.411249 0)
(0.255525 0.404707 0)
(0.258157 0.398233 0)
(0.260959 0.391831 0)
(0.263931 0.385505 0)
(0.267071 0.379261 0)
(0.270376 0.373103 0)
(0.273843 0.367034 0)
(0.277471 0.36106 0)
(0.281256 0.355184 0)
(0.285196 0.349411 0)
(0.289289 0.343744 0)
(0.293531 0.338188 0)
(0.297919 0.332747 0)
(0.302451 0.327424 0)
(0.307122 0.322224 0)
(0.311931 0.317149 0)
(0.316872 0.312204 0)
(0.321944 0.307392 0)
(0.327141 0.302716 0)
(0.332461 0.298179 0)
(0.3379 0.293786 0)
(0.343454 0.289538 0)
(0.349119 0.285439 0)
(0.35489 0.281492 0)
(0.360765 0.2777 0)
(0.366738 0.274065 0)
(0.372806 0.27059 0)
(0.378963 0.267277 0)
(0.385207 0.264129 0)
(0.391532 0.261148 0)
(0.397934 0.258336 0)
(0.404408 0.255694 0)
(0.41095 0.253226 0)
(0.417555 0.250932 0)
(0.424218 0.248815 0)
(0.430936 0.246875 0)
(0.437702 0.245115 0)
(0.444512 0.243535 0)
(0.451362 0.242137 0)
(0.458246 0.240921 0)
(0.46516 0.239889 0)
(0.472098 0.23904 0)
(0.479056 0.238377 0)
(0.486029 0.237899 0)
(0.493012 0.237607 0)
(0.225098 0.492975 0)
(0.22539 0.48566 0)
(0.225877 0.478355 0)
(0.226558 0.471065 0)
(0.227433 0.463797 0)
(0.228501 0.456554 0)
(0.229762 0.449342 0)
(0.231214 0.442167 0)
(0.232857 0.435033 0)
(0.234689 0.427945 0)
(0.236709 0.420908 0)
(0.238916 0.413928 0)
(0.241308 0.407008 0)
(0.243883 0.400155 0)
(0.246639 0.393373 0)
(0.249576 0.386666 0)
(0.252689 0.38004 0)
(0.255978 0.373499 0)
(0.25944 0.367047 0)
(0.263073 0.36069 0)
(0.266873 0.354432 0)
(0.270839 0.348277 0)
(0.274967 0.342229 0)
(0.279254 0.336293 0)
(0.283698 0.330473 0)
(0.288296 0.324774 0)
(0.293043 0.319198 0)
(0.297937 0.31375 0)
(0.302975 0.308434 0)
(0.308151 0.303254 0)
(0.313464 0.298213 0)
(0.318909 0.293315 0)
(0.324483 0.288563 0)
(0.330181 0.283961 0)
(0.335999 0.279511 0)
(0.341934 0.275218 0)
(0.34798 0.271083 0)
(0.354134 0.267111 0)
(0.360392 0.263303 0)
(0.366749 0.259663 0)
(0.3732 0.256192 0)
(0.379741 0.252895 0)
(0.386367 0.249772 0)
(0.393073 0.246826 0)
(0.399856 0.244059 0)
(0.406709 0.241473 0)
(0.413629 0.23907 0)
(0.42061 0.236852 0)
(0.427647 0.23482 0)
(0.434735 0.232976 0)
(0.44187 0.231321 0)
(0.449046 0.229856 0)
(0.456258 0.228583 0)
(0.4635 0.227501 0)
(0.470769 0.226613 0)
(0.478059 0.225918 0)
(0.485364 0.225417 0)
(0.492679 0.225111 0)
(0.212602 0.492638 0)
(0.212907 0.48499 0)
(0.213416 0.477353 0)
(0.214128 0.469732 0)
(0.215043 0.462134 0)
(0.21616 0.454562 0)
(0.217478 0.447023 0)
(0.218996 0.439521 0)
(0.220714 0.432063 0)
(0.222629 0.424653 0)
(0.224741 0.417297 0)
(0.227048 0.409999 0)
(0.229549 0.402766 0)
(0.232241 0.395601 0)
(0.235123 0.388511 0)
(0.238193 0.3815 0)
(0.241448 0.374573 0)
(0.244886 0.367735 0)
(0.248506 0.360991 0)
(0.252303 0.354345 0)
(0.256276 0.347803 0)
(0.260422 0.341369 0)
(0.264738 0.335047 0)
(0.269221 0.328842 0)
(0.273867 0.322758 0)
(0.278673 0.316799 0)
(0.283636 0.310971 0)
(0.288753 0.305276 0)
(0.294019 0.299719 0)
(0.299431 0.294304 0)
(0.304986 0.289034 0)
(0.310678 0.283914 0)
(0.316505 0.278946 0)
(0.322462 0.274135 0)
(0.328545 0.269484 0)
(0.334749 0.264996 0)
(0.34107 0.260674 0)
(0.347504 0.256521 0)
(0.354046 0.252541 0)
(0.360692 0.248735 0)
(0.367436 0.245108 0)
(0.374274 0.24166 0)
(0.381202 0.238396 0)
(0.388213 0.235316 0)
(0.395304 0.232424 0)
(0.402469 0.229721 0)
(0.409703 0.227209 0)
(0.417001 0.22489 0)
(0.424358 0.222766 0)
(0.431769 0.220838 0)
(0.439227 0.219108 0)
(0.446729 0.217576 0)
(0.454269 0.216245 0)
(0.461841 0.215114 0)
(0.469441 0.214186 0)
(0.477061 0.213459 0)
(0.484699 0.212936 0)
(0.492347 0.212616 0)
(0.200105 0.492299 0)
(0.200424 0.484318 0)
(0.200955 0.476349 0)
(0.201698 0.468398 0)
(0.202653 0.460468 0)
(0.203818 0.452568 0)
(0.205193 0.444701 0)
(0.206778 0.436873 0)
(0.20857 0.429091 0)
(0.210568 0.421359 0)
(0.212772 0.413683 0)
(0.21518 0.406069 0)
(0.217789 0.398521 0)
(0.220598 0.391046 0)
(0.223605 0.383648 0)
(0.226809 0.376332 0)
(0.230206 0.369105 0)
(0.233794 0.36197 0)
(0.23757 0.354933 0)
(0.241533 0.347999 0)
(0.245679 0.341173 0)
(0.250005 0.334459 0)
(0.254509 0.327863 0)
(0.259186 0.321388 0)
(0.264034 0.31504 0)
(0.269049 0.308824 0)
(0.274228 0.302742 0)
(0.279567 0.2968 0)
(0.285063 0.291002 0)
(0.29071 0.285352 0)
(0.296506 0.279854 0)
(0.302446 0.274512 0)
(0.308526 0.269329 0)
(0.314742 0.264309 0)
(0.32109 0.259456 0)
(0.327564 0.254773 0)
(0.33416 0.250264 0)
(0.340874 0.245931 0)
(0.3477 0.241778 0)
(0.354635 0.237807 0)
(0.361672 0.234022 0)
(0.368808 0.230425 0)
(0.376036 0.227019 0)
(0.383353 0.223806 0)
(0.390752 0.220788 0)
(0.398228 0.217968 0)
(0.405777 0.215347 0)
(0.413392 0.212927 0)
(0.421069 0.210711 0)
(0.428802 0.208699 0)
(0.436585 0.206894 0)
(0.444413 0.205296 0)
(0.452281 0.203907 0)
(0.460182 0.202727 0)
(0.468112 0.201758 0)
(0.476064 0.201 0)
(0.484033 0.200454 0)
(0.492014 0.20012 0)
(0.506988 0.237581 0)
(0.513971 0.237847 0)
(0.520944 0.238299 0)
(0.527902 0.238936 0)
(0.53484 0.239759 0)
(0.541754 0.240766 0)
(0.548638 0.241957 0)
(0.555488 0.243331 0)
(0.562298 0.244887 0)
(0.569064 0.246624 0)
(0.575782 0.248541 0)
(0.582445 0.250636 0)
(0.58905 0.252908 0)
(0.595592 0.255356 0)
(0.602066 0.257978 0)
(0.608468 0.260771 0)
(0.614793 0.263734 0)
(0.621037 0.266865 0)
(0.627194 0.270161 0)
(0.633262 0.273621 0)
(0.639235 0.277241 0)
(0.64511 0.281019 0)
(0.650881 0.284953 0)
(0.656546 0.28904 0)
(0.6621 0.293276 0)
(0.667539 0.297659 0)
(0.672859 0.302186 0)
(0.678056 0.306853 0)
(0.683128 0.311657 0)
(0.688069 0.316595 0)
(0.692878 0.321663 0)
(0.697549 0.326858 0)
(0.702081 0.332176 0)
(0.706469 0.337612 0)
(0.710711 0.343164 0)
(0.714804 0.348827 0)
(0.718744 0.354597 0)
(0.722529 0.36047 0)
(0.726157 0.366442 0)
(0.729625 0.372509 0)
(0.732929 0.378666 0)
(0.736069 0.384909 0)
(0.739041 0.391233 0)
(0.741843 0.397635 0)
(0.744475 0.404109 0)
(0.746933 0.410651 0)
(0.749216 0.417256 0)
(0.751322 0.423919 0)
(0.75325 0.430636 0)
(0.754999 0.437403 0)
(0.756567 0.444213 0)
(0.757953 0.451063 0)
(0.759157 0.457947 0)
(0.760176 0.464861 0)
(0.761012 0.471799 0)
(0.761662 0.478758 0)
(0.762127 0.485731 0)
(0.762406 0.492714 0)
(0.507321 0.225084 0)
(0.514636 0.225362 0)
(0.521941 0.225836 0)
(0.529231 0.226503 0)
(0.5365 0.227365 0)
(0.543742 0.22842 0)
(0.550954 0.229668 0)
(0.55813 0.231107 0)
(0.565265 0.232738 0)
(0.572353 0.234558 0)
(0.57939 0.236566 0)
(0.586371 0.238761 0)
(0.593291 0.241142 0)
(0.600144 0.243707 0)
(0.606927 0.246453 0)
(0.613633 0.24938 0)
(0.620259 0.252484 0)
(0.6268 0.255764 0)
(0.633251 0.259218 0)
(0.639608 0.262843 0)
(0.645866 0.266636 0)
(0.65202 0.270594 0)
(0.658066 0.274716 0)
(0.664001 0.278998 0)
(0.669819 0.283436 0)
(0.675517 0.288029 0)
(0.681091 0.292771 0)
(0.686536 0.297661 0)
(0.691849 0.302695 0)
(0.697025 0.307869 0)
(0.702063 0.313179 0)
(0.706957 0.318621 0)
(0.711704 0.324192 0)
(0.716302 0.329888 0)
(0.720746 0.335705 0)
(0.725033 0.341638 0)
(0.729161 0.347683 0)
(0.733127 0.353837 0)
(0.736927 0.360094 0)
(0.74056 0.36645 0)
(0.744022 0.372901 0)
(0.747311 0.379441 0)
(0.750424 0.386067 0)
(0.753361 0.392774 0)
(0.756117 0.399557 0)
(0.758692 0.40641 0)
(0.761084 0.41333 0)
(0.763291 0.420312 0)
(0.765311 0.427349 0)
(0.767143 0.434438 0)
(0.768786 0.441573 0)
(0.770238 0.448749 0)
(0.771499 0.455961 0)
(0.772567 0.463204 0)
(0.773442 0.470473 0)
(0.774123 0.477763 0)
(0.77461 0.485068 0)
(0.774902 0.492384 0)
(0.507653 0.212587 0)
(0.515301 0.212878 0)
(0.522939 0.213373 0)
(0.530559 0.214071 0)
(0.538159 0.214972 0)
(0.545731 0.216075 0)
(0.553271 0.21738 0)
(0.560773 0.218885 0)
(0.568231 0.220589 0)
(0.575642 0.222492 0)
(0.582999 0.224592 0)
(0.590297 0.226887 0)
(0.597531 0.229376 0)
(0.604696 0.232058 0)
(0.611787 0.234929 0)
(0.618798 0.237989 0)
(0.625726 0.241235 0)
(0.632564 0.244665 0)
(0.639308 0.248276 0)
(0.645954 0.252066 0)
(0.652496 0.256032 0)
(0.65893 0.260171 0)
(0.665251 0.26448 0)
(0.671455 0.268957 0)
(0.677538 0.273598 0)
(0.683495 0.278399 0)
(0.689322 0.283358 0)
(0.695014 0.288471 0)
(0.700569 0.293734 0)
(0.705981 0.299143 0)
(0.711247 0.304695 0)
(0.716364 0.310386 0)
(0.721327 0.316211 0)
(0.726133 0.322166 0)
(0.730779 0.328247 0)
(0.735262 0.334451 0)
(0.739578 0.340771 0)
(0.743724 0.347205 0)
(0.747697 0.353747 0)
(0.751494 0.360392 0)
(0.755114 0.367137 0)
(0.758552 0.373975 0)
(0.761807 0.380903 0)
(0.764877 0.387915 0)
(0.767759 0.395006 0)
(0.770451 0.402172 0)
(0.772952 0.409407 0)
(0.775259 0.416706 0)
(0.777371 0.424063 0)
(0.779286 0.431474 0)
(0.781004 0.438934 0)
(0.782522 0.446436 0)
(0.78384 0.453977 0)
(0.784957 0.461549 0)
(0.785872 0.469149 0)
(0.786584 0.47677 0)
(0.787093 0.484407 0)
(0.787398 0.492055 0)
(0.507986 0.20009 0)
(0.515967 0.200394 0)
(0.523936 0.20091 0)
(0.531888 0.201639 0)
(0.539818 0.202579 0)
(0.547719 0.20373 0)
(0.555587 0.205091 0)
(0.563415 0.206662 0)
(0.571198 0.20844 0)
(0.578931 0.210426 0)
(0.586608 0.212617 0)
(0.594223 0.215013 0)
(0.601772 0.21761 0)
(0.609248 0.220408 0)
(0.616647 0.223405 0)
(0.623964 0.226598 0)
(0.631192 0.229986 0)
(0.638328 0.233565 0)
(0.645365 0.237333 0)
(0.6523 0.241288 0)
(0.659126 0.245427 0)
(0.66584 0.249747 0)
(0.672436 0.254244 0)
(0.67891 0.258916 0)
(0.685258 0.263759 0)
(0.691474 0.26877 0)
(0.697554 0.273945 0)
(0.703494 0.279281 0)
(0.70929 0.284773 0)
(0.714937 0.290418 0)
(0.720433 0.296212 0)
(0.725772 0.30215 0)
(0.730951 0.308229 0)
(0.735966 0.314444 0)
(0.740814 0.320791 0)
(0.745492 0.327264 0)
(0.749995 0.33386 0)
(0.754321 0.340574 0)
(0.758467 0.347401 0)
(0.76243 0.354336 0)
(0.766206 0.361374 0)
(0.769794 0.368511 0)
(0.773191 0.37574 0)
(0.776395 0.383057 0)
(0.779402 0.390457 0)
(0.782211 0.397935 0)
(0.78482 0.405485 0)
(0.787228 0.413101 0)
(0.789432 0.420779 0)
(0.79143 0.428513 0)
(0.793222 0.436297 0)
(0.794807 0.444126 0)
(0.796182 0.451994 0)
(0.797347 0.459896 0)
(0.798302 0.467826 0)
(0.799045 0.475779 0)
(0.799576 0.483748 0)
(0.799895 0.491729 0)
(0.762406 0.506689 0)
(0.762127 0.513672 0)
(0.761662 0.520645 0)
(0.761012 0.527603 0)
(0.760176 0.534542 0)
(0.759157 0.541455 0)
(0.757953 0.548339 0)
(0.756567 0.555189 0)
(0.754999 0.561999 0)
(0.75325 0.568765 0)
(0.751322 0.575482 0)
(0.749216 0.582146 0)
(0.746933 0.588751 0)
(0.744475 0.595293 0)
(0.741843 0.601767 0)
(0.739041 0.608169 0)
(0.736069 0.614495 0)
(0.732929 0.620739 0)
(0.729624 0.626897 0)
(0.726157 0.632966 0)
(0.722529 0.63894 0)
(0.718744 0.644816 0)
(0.714804 0.650589 0)
(0.710711 0.656256 0)
(0.706469 0.661812 0)
(0.702081 0.667253 0)
(0.697549 0.672576 0)
(0.692878 0.677776 0)
(0.688069 0.682851 0)
(0.683128 0.687796 0)
(0.678056 0.692608 0)
(0.672859 0.697284 0)
(0.667539 0.701821 0)
(0.6621 0.706214 0)
(0.656546 0.710462 0)
(0.650881 0.714561 0)
(0.64511 0.718508 0)
(0.639235 0.7223 0)
(0.633262 0.725935 0)
(0.627194 0.72941 0)
(0.621037 0.732723 0)
(0.614793 0.735871 0)
(0.608468 0.738852 0)
(0.602066 0.741664 0)
(0.595592 0.744306 0)
(0.58905 0.746774 0)
(0.582445 0.749068 0)
(0.575782 0.751185 0)
(0.569064 0.753125 0)
(0.562298 0.754885 0)
(0.555488 0.756465 0)
(0.548638 0.757863 0)
(0.541754 0.759079 0)
(0.53484 0.760111 0)
(0.527902 0.76096 0)
(0.520944 0.761623 0)
(0.513971 0.762101 0)
(0.506988 0.762393 0)
(0.774902 0.507025 0)
(0.77461 0.51434 0)
(0.774123 0.521645 0)
(0.773442 0.528935 0)
(0.772567 0.536203 0)
(0.771499 0.543446 0)
(0.770238 0.550658 0)
(0.768786 0.557833 0)
(0.767143 0.564967 0)
(0.765311 0.572055 0)
(0.763291 0.579092 0)
(0.761084 0.586072 0)
(0.758692 0.592992 0)
(0.756117 0.599845 0)
(0.753361 0.606627 0)
(0.750424 0.613334 0)
(0.747311 0.61996 0)
(0.744022 0.626501 0)
(0.74056 0.632953 0)
(0.736927 0.63931 0)
(0.733127 0.645568 0)
(0.729161 0.651723 0)
(0.725033 0.657771 0)
(0.720746 0.663707 0)
(0.716302 0.669527 0)
(0.711704 0.675226 0)
(0.706957 0.680802 0)
(0.702063 0.68625 0)
(0.697025 0.691566 0)
(0.691849 0.696746 0)
(0.686536 0.701787 0)
(0.681091 0.706685 0)
(0.675517 0.711437 0)
(0.669819 0.716039 0)
(0.664001 0.720489 0)
(0.658066 0.724782 0)
(0.65202 0.728917 0)
(0.645866 0.732889 0)
(0.639608 0.736697 0)
(0.633251 0.740337 0)
(0.6268 0.743808 0)
(0.620259 0.747105 0)
(0.613633 0.750228 0)
(0.606927 0.753174 0)
(0.600144 0.755941 0)
(0.593291 0.758527 0)
(0.586371 0.76093 0)
(0.57939 0.763148 0)
(0.572353 0.76518 0)
(0.565265 0.767024 0)
(0.55813 0.768679 0)
(0.550954 0.770144 0)
(0.543742 0.771417 0)
(0.5365 0.772499 0)
(0.529231 0.773387 0)
(0.521941 0.774082 0)
(0.514636 0.774583 0)
(0.507321 0.774889 0)
(0.787398 0.507362 0)
(0.787093 0.51501 0)
(0.786584 0.522647 0)
(0.785872 0.530268 0)
(0.784957 0.537866 0)
(0.78384 0.545438 0)
(0.782522 0.552977 0)
(0.781004 0.560479 0)
(0.779286 0.567937 0)
(0.777371 0.575347 0)
(0.775259 0.582703 0)
(0.772952 0.590001 0)
(0.770451 0.597234 0)
(0.767759 0.604399 0)
(0.764877 0.611489 0)
(0.761807 0.6185 0)
(0.758552 0.625427 0)
(0.755114 0.632265 0)
(0.751494 0.639009 0)
(0.747697 0.645655 0)
(0.743724 0.652197 0)
(0.739578 0.658631 0)
(0.735262 0.664953 0)
(0.730779 0.671158 0)
(0.726133 0.677242 0)
(0.721327 0.683201 0)
(0.716364 0.689029 0)
(0.711247 0.694724 0)
(0.705981 0.700281 0)
(0.700569 0.705696 0)
(0.695014 0.710966 0)
(0.689322 0.716086 0)
(0.683495 0.721054 0)
(0.677538 0.725865 0)
(0.671455 0.730516 0)
(0.665251 0.735004 0)
(0.65893 0.739326 0)
(0.652496 0.743479 0)
(0.645954 0.747459 0)
(0.639308 0.751265 0)
(0.632564 0.754892 0)