/*--------------------------------*- C++ -*----------------------------------*\
| =========                 |                                                 |
| \\      /  F ield         | OpenFOAM: The Open Source CFD Toolbox           |
|  \\    /   O peration     | Version:  v1806                                 |
|   \\  /    A nd           | Web:      www.OpenFOAM.com                      |
|    \\/     M anipulation  |                                                 |
\*---------------------------------------------------------------------------*/
FoamFile
{
    version     2.0;
    format      ascii;
    class       volVectorField;
    location    "0.001";
    object      f;
}
// * * * * * * * * * * * * * * * * * * * * * * * * * * * * * * * * * * * * * //

dimensions      [0 1 -2 0 0 0 0];


internalField   nonuniform List<vector> 
4096
(
(0 0 0)
(0 0 0)
(0 0 0)
(0 0 0)
(0 0 0)
(0 0 0)
(0 0 0)
(0 0 0)
(0 0 0)
(0 0 0)
(0 0 0)
(0 0 0)
(0 0 0)
(0 0 0)
(0 0 0)
(0 0 0)
(0 0 0)
(0 0 0)
(0 0 0)
(0 0 0)
(0 0 0)
(0 0 0)
(0 0 0)
(0 0 0)
(0 0 0)
(0 0 0)
(0 0 0)
(0 0 0)
(0 0 0)
(0 0 0)
(0 0 0)
(0 0 0)
(0 0 0)
(0 0 0)
(0 0 0)
(0 0 0)
(0 0 0)
(0 0 0)
(0 0 0)
(0 0 0)
(0 0 0)
(0 0 0)
(0 0 0)
(0 0 0)
(0 0 0)
(0 0 0)
(0 0 0)
(0 0 0)
(0 0 0)
(0 0 0)
(0 0 0)
(0 0 0)
(0 0 0)
(0 0 0)
(0 0 0)
(0 0 0)
(0 0 0)
(0 0 0)
(0 0 0)
(0 0 0)
(0 0 0)
(0 0 0)
(0 0 0)
(0 0 0)
(0 0 0)
(0 0 0)
(0 0 0)
(0 0 0)
(0 0 0)
(0 0 0)
(0 0 0)
(0 0 0)
(0 0 0)
(0 0 0)
(0 0 0)
(0 0 0)
(0 0 0)
(0 0 0)
(0 0 0)
(0 0 0)
(0 0 0)
(0 0 0)
(0 0 0)
(0 0 0)
(0 0 0)
(0 0 0)
(0 0 0)
(0 0 0)
(0 0 0)
(0 0 0)
(0 0 0)
(0 0 0)
(0 0 0)
(0 0 0)
(0 0 0)
(0 0 0)
(0 0 0)
(0 0 0)
(0 0 0)
(0 0 0)
(0 0 0)
(0 0 0)
(0 0 0)
(0 0 0)
(0 0 0)
(0 0 0)
(0 0 0)
(0 0 0)
(0 0 0)
(0 0 0)
(0 0 0)
(0 0 0)
(0 0 0)
(0 0 0)
(0 0 0)
(0 0 0)
(0 0 0)
(0 0 0)
(0 0 0)
(0 0 0)
(0 0 0)
(0 0 0)
(0 0 0)
(0 0 0)
(0 0 0)
(0 0 0)
(0 0 0)
(0 0 0)
(0 0 0)
(0 0 0)
(0 0 0)
(0 0 0)
(0 0 0)
(0 0 0)
(0 0 0)
(0 0 0)
(0 0 0)
(0 0 0)
(0 0 0)
(0 0 0)
(0 0 0)
(0 0 0)
(0 0 0)
(0 0 0)
(0 0 0)
(0 0 0)
(0 0 0)
(0 0 0)
(0 0 0)
(0 0 0)
(0 0 0)
(0 0 0)
(0 0 0)
(0 0 0)
(0 0 0)
(0 0 0)
(0 0 0)
(0 0 0)
(0 0 0)
(0 0 0)
(0 0 0)
(0 0 0)
(0 0 0)
(0 0 0)
(0 0 0)
(0 0 0)
(0 0 0)
(0 0 0)
(0 0 0)
(0 0 0)
(0 0 0)
(0 0 0)
(0 0 0)
(0 0 0)
(0 0 0)
(0 0 0)
(0 0 0)
(0 0 0)
(0 0 0)
(0 0 0)
(0 0 0)
(0 0 0)
(0 0 0)
(0 0 0)
(0 0 0)
(0 0 0)
(0 0 0)
(0 0 0)
(0 0 0)
(0 0 0)
(0 0 0)
(0 0 0)
(0 0 0)
(0 0 0)
(0 0 0)
(0 0 0)
(0 0 0)
(0 0 0)
(0 0 0)
(0 0 0)
(0 0 0)
(0 0 0)
(0 0 0)
(0 0 0)
(0 0 0)
(0 0 0)
(0 0 0)
(0 0 0)
(0 0 0)
(0 0 0)
(0 0 0)
(0 0 0)
(0 0 0)
(0 0 0)
(0 0 0)
(0 0 0)
(0 0 0)
(0 0 0)
(0 0 0)
(0 0 0)
(0 0 0)
(0 0 0)
(0 0 0)
(0 0 0)
(0 0 0)
(0 0 0)
(0 0 0)
(0 0 0)
(0 0 0)
(0 0 0)
(0 0 0)
(0 0 0)
(0 0 0)
(0 0 0)
(0 0 0)
(0 0 0)
(0 0 0)
(0 0 0)
(0 0 0)
(0 0 0)
(0 0 0)
(0 0 0)
(0 0 0)
(0 0 0)
(0 0 0)
(0 0 0)
(0 0 0)
(0 0 0)
(0 0 0)
(0 0 0)
(0 0 0)
(0 0 0)
(0 0 0)
(0 0 0)
(0 0 0)
(0 0 0)
(0 0 0)
(0 0 0)
(0 0 0)
(0 0 0)
(0 0 0)
(0 0 0)
(0 0 0)
(0 0 0)
(0 0 0)
(0 0 0)
(0 0 0)
(0 0 0)
(0 0 0)
(0 0 0)
(0 0 0)
(0 0 0)
(0 0 0)
(0 0 0)
(0 0 0)
(0 0 0)
(0 0 0)
(0 0 0)
(0 0 0)
(0 0 0)
(0 0 0)
(0 0 0)
(0 0 0)
(0 0 0)
(0 0 0)
(0 0 0)
(0 0 0)
(0 0 0)
(0 0 0)
(0 0 0)
(0 0 0)
(0 0 0)
(0 0 0)
(0 0 0)
(0 0 0)
(0 0 0)
(0 0 0)
(0 0 0)
(0 0 0)
(0 0 0)
(0 0 0)
(0 0 0)
(0 0 0)
(0 0 0)
(0 0 0)
(0 0 0)
(0 0 0)
(0 0 0)
(0 0 0)
(0 0 0)
(0 0 0)
(0 0 0)
(0 0 0)
(0 0 0)
(0 0 0)
(0 0 0)
(0 0 0)
(0 0 0)
(0 0 0)
(0 0 0)
(0 0 0)
(0 0 0)
(0 0 0)
(0 0 0)
(0 0 0)
(0 0 0)
(0 0 0)
(0 0 0)
(0 0 0)
(0 0 0)
(0 0 0)
(0 0 0)
(0 0 0)
(0 0 0)
(0 0 0)
(0 0 0)
(0 0 0)
(0 0 0)
(0 0 0)
(0 0 0)
(0 0 0)
(0 0 0)
(0 0 0)
(0 0 0)
(0 0 0)
(0 0 0)
(0 0 0)
(0 0 0)
(0 0 0)
(0 0 0)
(0 0 0)
(0 0 0)
(0 0 0)
(0 0 0)
(0 0 0)
(0 0 0)
(0 0 0)
(0 0 0)
(0 0 0)
(0 0 0)
(0 0 0)
(0 0 0)
(0 0 0)
(0 0 0)
(0 0 0)
(0 0 0)
(0 0 0)
(0 0 0)
(0 0 0)
(0 0 0)
(0 0 0)
(0 0 0)
(0 0 0)
(0 0 0)
(0 0 0)
(0 0 0)
(0 0 0)
(0 0 0)
(0 0 0)
(0 0 0)
(0 0 0)
(0 0 0)
(0 0 0)
(0 0 0)
(0 0 0)
(0 0 0)
(0 0 0)
(0 0 0)
(0 0 0)
(0 0 0)
(0 0 0)
(0 0 0)
(0 0 0)
(0 0 0)
(0 0 0)
(0 0 0)
(0 0 0)
(0 0 0)
(0 0 0)
(0 0 0)
(0 0 0)
(0 0 0)
(0 0 0)
(0 0 0)
(0 0 0)
(0 0 0)
(0 0 0)
(0 0 0)
(0 0 0)
(0 0 0)
(0 0 0)
(0 0 0)
(0 0 0)
(0 0 0)
(0 0 0)
(0 0 0)
(0 0 0)
(0 0 0)
(0 0 0)
(0 0 0)
(0 0 0)
(0 0 0)
(0 0 0)
(0 0 0)
(0 0 0)
(0 0 0)
(0 0 0)
(0 0 0)
(0 0 0)
(0 0 0)
(0 0 0)
(0 0 0)
(0 0 0)
(0 0 0)
(0 0 0)
(0 0 0)
(0 0 0)
(0 0 0)
(0 0 0)
(0 0 0)
(0 0 0)
(0 0 0)
(0 0 0)
(0 0 0)
(0 0 0)
(0 0 0)
(0 0 0)
(0 0 0)
(0 0 0)
(0 0 0)
(0 0 0)
(0 0 0)
(0 0 0)
(0 0 0)
(0 0 0)
(0 0 0)
(0 0 0)
(0 0 0)
(0 0 0)
(0 0 0)
(0 0 0)
(0 0 0)
(0 0 0)
(0 0 0)
(0 0 0)
(0 0 0)
(0 0 0)
(0 0 0)
(0 0 0)
(0 0 0)
(0 0 0)
(0 0 0)
(0 0 0)
(0 0 0)
(0 0 0)
(0 0 0)
(0 0 0)
(0 0 0)
(0 0 0)
(0 0 0)
(0 0 0)
(0 0 0)
(0 0 0)
(0 0 0)
(0 0 0)
(0 0 0)
(0 0 0)
(0 0 0)
(0 0 0)
(0 0 0)
(0 0 0)
(0 0 0)
(0 0 0)
(0 0 0)
(0 0 0)
(0 0 0)
(0 0 0)
(0 0 0)
(0 0 0)
(0 0 0)
(0 0 0)
(0 0 0)
(0 0 0)
(0 0 0)
(0 0 0)
(0 0 0)
(0 0 0)
(0 0 0)
(0 0 0)
(0 0 0)
(0 0 0)
(0 0 0)
(0 0 0)
(0 0 0)
(0 0 0)
(0 0 0)
(0 0 0)
(0 0 0)
(0 0 0)
(0 0 0)
(0 0 0)
(0 0 0)
(0 0 0)
(0 0 0)
(0 0 0)
(0 0 0)
(0 0 0)
(0 0 0)
(0 0 0)
(0 0 0)
(0 0 0)
(0 0 0)
(0 0 0)
(0 0 0)
(0 0 0)
(0 0 0)
(0 0 0)
(0 0 0)
(0 0 0)
(0 0 0)
(0 0 0)
(0 0 0)
(0 0 0)
(0 0 0)
(0 0 0)
(0 0 0)
(0 0 0)
(0 0 0)
(0 0 0)
(0 0 0)
(0 0 0)
(0 0 0)
(0 0 0)
(0 0 0)
(0 0 0)
(0 0 0)
(0 0 0)
(0 0 0)
(0 0 0)
(0 0 0)
(0 0 0)
(0 0 0)
(0 0 0)
(0 0 0)
(0 0 0)
(0 0 0)
(0 0 0)
(0 0 0)
(0 0 0)
(0 0 0)
(0 0 0)
(0 0 0)
(0 0 0)
(0 0 0)
(0 0 0)
(0 0 0)
(0 0 0)
(0 0 0)
(0 0 0)
(0 0 0)
(0 0 0)
(0 0 0)
(0 0 0)
(0 0 0)
(0 0 0)
(0 0 0)
(0 0 0)
(0 0 0)
(0 0 0)
(0 0 0)
(0 0 0)
(0 0 0)
(0 0 0)
(0 0 0)
(0 0 0)
(0 0 0)
(0 0 0)
(0 0 0)
(0 0 0)
(0 0 0)
(0 0 0)
(0 0 0)
(0 0 0)
(0 0 0)
(0 0 0)
(0 0 0)
(0 0 0)
(0 0 0)
(0 0 0)
(0 0 0)
(0 0 0)
(0 0 0)
(0 0 0)
(0 0 0)
(0 0 0)
(0 0 0)
(0 0 0)
(0 0 0)
(0 0 0)
(0 0 0)
(0 0 0)
(0 0 0)
(0 0 0)
(0 0 0)
(0 0 0)
(0 0 0)
(0 0 0)
(0 0 0)
(0 0 0)
(0 0 0)
(0 0 0)
(0 0 0)
(0 0 0)
(0 0 0)
(0 0 0)
(0 0 0)
(0 0 0)
(0 0 0)
(0 0 0)
(0 0 0)
(0 0 0)
(0 0 0)
(0 0 0)
(0 0 0)
(0 0 0)
(0 0 0)
(0 0 0)
(0 0 0)
(0 0 0)
(0 0 0)
(0 0 0)
(0 0 0)
(0 0 0)
(0 0 0)
(0 0 0)
(0 0 0)
(0 0 0)
(0 0 0)
(0 0 0)
(0 0 0)
(0 0 0)
(0 0 0)
(0 0 0)
(0 0 0)
(0 0 0)
(0 0 0)
(0.00198472 0.00980328 0)
(0.0393254 0.222357 0)
(0.154063 1.05061 0)
(0.265219 2.40724 0)
(0.248099 3.6687 0)
(0.0996028 4.38319 0)
(-0.0996028 4.38319 0)
(-0.248099 3.6687 0)
(-0.265219 2.40724 0)
(-0.154063 1.05061 0)
(-0.0393254 0.222357 0)
(-0.00198472 0.00980328 0)
(0 0 0)
(0 0 0)
(0 0 0)
(0 0 0)
(0 0 0)
(0 0 0)
(0 0 0)
(0 0 0)
(0 0 0)
(0 0 0)
(0 0 0)
(0 0 0)
(0 0 0)
(0 0 0)
(0 0 0)
(0 0 0)
(0 0 0)
(0 0 0)
(0 0 0)
(0 0 0)
(0 0 0)
(0 0 0)
(0 0 0)
(0 0 0)
(0 0 0)
(0 0 0)
(0 0 0)
(0 0 0)
(0 0 0)
(0 0 0)
(0 0 0)
(0 0 0)
(0 0 0)
(0 0 0)
(0 0 0)
(0 0 0)
(0 0 0)
(0 0 0)
(0 0 0)
(0 0 0)
(0 0 0)
(0 0 0)
(0 0 0)
(0 0 0)
(0 0 0)
(0 0 0)
(0 0 0)
(0 0 0)
(0 0 0)
(0.0234877 0.0623403 0)
(0.326184 0.941584 0)
(1.23533 3.97839 0)
(2.46637 9.22043 0)
(3.37876 15.3448 0)
(3.55722 20.6511 0)
(2.97843 24.1488 0)
(1.92981 26.12 0)
(0.663587 26.9755 0)
(-0.663587 26.9755 0)
(-1.92981 26.12 0)
(-2.97843 24.1488 0)
(-3.55722 20.6511 0)
(-3.37876 15.3448 0)
(-2.46637 9.22043 0)
(-1.23533 3.97839 0)
(-0.326184 0.941584 0)
(-0.0234877 0.0623403 0)
(0 0 0)
(0 0 0)
(0 0 0)
(0 0 0)
(0 0 0)
(0 0 0)
(0 0 0)
(0 0 0)
(0 0 0)
(0 0 0)
(0 0 0)
(0 0 0)
(0 0 0)
(0 0 0)
(0 0 0)
(0 0 0)
(0 0 0)
(0 0 0)
(0 0 0)
(0 0 0)
(0 0 0)
(0 0 0)
(0 0 0)
(0 0 0)
(0 0 0)
(0 0 0)
(0 0 0)
(0 0 0)
(0 0 0)
(0 0 0)
(0 0 0)
(0 0 0)
(0 0 0)
(0 0 0)
(0 0 0)
(0 0 0)
(0 0 0)
(0 0 0)
(0 0 0)
(0 0 0)
(0 0 0)
(0 0 0)
(0 0 0)
(0 0 0)
(0.0693001 0.136292 0)
(0.890473 1.87618 0)
(3.28875 7.59378 0)
(6.42458 16.6226 0)
(8.33858 24.7981 0)
(8.39467 29.5996 0)
(7.2396 31.3332 0)
(5.54 30.9236 0)
(3.77481 29.5966 0)
(2.16172 28.3447 0)
(0.700418 27.5976 0)
(-0.700418 27.5976 0)
(-2.16172 28.3447 0)
(-3.77481 29.5966 0)
(-5.54 30.9236 0)
(-7.2396 31.3332 0)
(-8.39467 29.5996 0)
(-8.33858 24.7981 0)
(-6.42458 16.6226 0)
(-3.28875 7.59378 0)
(-0.890473 1.87618 0)
(-0.0693001 0.136292 0)
(0 0 0)
(0 0 0)
(0 0 0)
(0 0 0)
(0 0 0)
(0 0 0)
(0 0 0)
(0 0 0)
(0 0 0)
(0 0 0)
(0 0 0)
(0 0 0)
(0 0 0)
(0 0 0)
(0 0 0)
(0 0 0)
(0 0 0)
(0 0 0)
(0 0 0)
(0 0 0)
(0 0 0)
(0 0 0)
(0 0 0)
(0 0 0)
(0 0 0)
(0 0 0)
(0 0 0)
(0 0 0)
(0 0 0)
(0 0 0)
(0 0 0)
(0 0 0)
(0 0 0)
(0 0 0)
(0 0 0)
(0 0 0)
(0 0 0)
(0 0 0)
(0 0 0)
(0 0 0)
(0.0232467 0.0355419 0)
(0.763508 1.25182 0)
(4.01518 7.112 0)
(9.17932 17.7893 0)
(12.5007 27.0474 0)
(12.2684 30.2455 0)
(9.77722 27.991 0)
(6.7073 22.7747 0)
(4.02638 16.6494 0)
(2.14173 11.3445 0)
(1.06077 7.85551 0)
(0.480115 5.89441 0)
(0.136886 5.00504 0)
(-0.136886 5.00504 0)
(-0.480115 5.89441 0)
(-1.06077 7.85551 0)
(-2.14173 11.3445 0)
(-4.02638 16.6494 0)
(-6.7073 22.7747 0)
(-9.77722 27.991 0)
(-12.2684 30.2455 0)
(-12.5007 27.0474 0)
(-9.17932 17.7893 0)
(-4.01518 7.112 0)
(-0.763508 1.25182 0)
(-0.0232467 0.0355419 0)
(0 0 0)
(0 0 0)
(0 0 0)
(0 0 0)
(0 0 0)
(0 0 0)
(0 0 0)
(0 0 0)
(0 0 0)
(0 0 0)
(0 0 0)
(0 0 0)
(0 0 0)
(0 0 0)
(0 0 0)
(0 0 0)
(0 0 0)
(0 0 0)
(0 0 0)
(0 0 0)
(0 0 0)
(0 0 0)
(0 0 0)
(0 0 0)
(0 0 0)
(0 0 0)
(0 0 0)
(0 0 0)
(0 0 0)
(0 0 0)
(0 0 0)
(0 0 0)
(0 0 0)
(0 0 0)
(0 0 0)
(0 0 0)
(0 0 0)
(0.173976 0.228787 0)
(2.41609 3.40451 0)
(8.76188 13.3127 0)
(15.0207 24.9162 0)
(15.7312 28.996 0)
(11.7547 24.3605 0)
(6.55459 15.3742 0)
(2.68635 7.19976 0)
(0.777285 2.38539 0)
(0.110073 0.358318 0)
(-0.110015 -0.651455 0)
(-0.261885 -1.99114 0)
(-0.282321 -3.4272 0)
(-0.119462 -4.32168 0)
(0.119462 -4.32168 0)
(0.282321 -3.4272 0)
(0.261885 -1.99114 0)
(0.110015 -0.651455 0)
(-0.110073 0.358318 0)
(-0.777285 2.38539 0)
(-2.68635 7.19976 0)
(-6.55459 15.3742 0)
(-11.7547 24.3605 0)
(-15.7312 28.996 0)
(-15.0207 24.9162 0)
(-8.76188 13.3127 0)
(-2.41609 3.40451 0)
(-0.173976 0.228787 0)
(0 0 0)
(0 0 0)
(0 0 0)
(0 0 0)
(0 0 0)
(0 0 0)
(0 0 0)
(0 0 0)
(0 0 0)
(0 0 0)
(0 0 0)
(0 0 0)
(0 0 0)
(0 0 0)
(0 0 0)
(0 0 0)
(0 0 0)
(0 0 0)
(0 0 0)
(0 0 0)
(0 0 0)
(0 0 0)
(0 0 0)
(0 0 0)
(0 0 0)
(0 0 0)
(0 0 0)
(0 0 0)
(0 0 0)
(0 0 0)
(0 0 0)
(0 0 0)
(0 0 0)
(0 0 0)
(0.000646 0.000699577 0)
(0.436087 0.499723 0)
(4.48678 5.49512 0)
(13.3683 17.599 0)
(18.9937 27.2022 0)
(15.6305 24.6681 0)
(8.1183 14.1608 0)
(2.53671 4.87276 0)
(0.329419 0.676203 0)
(-0.560098 -1.49612 0)
(-1.86035 -5.67367 0)
(-3.2754 -12.0053 0)
(-3.95313 -18.5148 0)
(-3.56566 -23.2214 0)
(-2.37031 -25.6929 0)
(-0.825367 -26.9462 0)
(0.825367 -26.9462 0)
(2.37031 -25.6929 0)
(3.56566 -23.2214 0)
(3.95313 -18.5148 0)
(3.2754 -12.0053 0)
(1.86035 -5.67367 0)
(0.560098 -1.49612 0)
(-0.329419 0.676203 0)
(-2.53671 4.87276 0)
(-8.1183 14.1608 0)
(-15.6305 24.6681 0)
(-18.9937 27.2022 0)
(-13.3683 17.599 0)
(-4.48678 5.49512 0)
(-0.436087 0.499723 0)
(-0.000646 0.000699577 0)
(0 0 0)
(0 0 0)
(0 0 0)
(0 0 0)
(0 0 0)
(0 0 0)
(0 0 0)
(0 0 0)
(0 0 0)
(0 0 0)
(0 0 0)
(0 0 0)
(0 0 0)
(0 0 0)
(0 0 0)
(0 0 0)
(0 0 0)
(0 0 0)
(0 0 0)
(0 0 0)
(0 0 0)
(0 0 0)
(0 0 0)
(0 0 0)
(0 0 0)
(0 0 0)
(0 0 0)
(0 0 0)
(0 0 0)
(0 0 0)
(0 0 0)
(0.000699577 0.000646 0)
(0.554657 0.554657 0)
(6.11623 6.54683 0)
(16.9292 19.4056 0)
(21.1122 26.1853 0)
(13.8197 18.6902 0)
(4.73254 6.96655 0)
(0.606795 0.959371 0)
(-1.01513 -1.90098 0)
(-4.0398 -8.40051 0)
(-7.72377 -18.2781 0)
(-9.50727 -26.5478 0)
(-8.90798 -30.5213 0)
(-7.02767 -31.167 0)
(-4.8289 -30.073 0)
(-2.7323 -28.4693 0)
(-0.882541 -27.7229 0)
(0.882541 -27.7229 0)
(2.7323 -28.4693 0)
(4.8289 -30.073 0)
(7.02767 -31.167 0)
(8.90798 -30.5213 0)
(9.50727 -26.5478 0)
(7.72377 -18.2781 0)
(4.0398 -8.40051 0)
(1.01513 -1.90098 0)
(-0.606795 0.959371 0)
(-4.73254 6.96655 0)
(-13.8197 18.6902 0)
(-21.1122 26.1853 0)
(-16.9292 19.4056 0)
(-6.11623 6.54683 0)
(-0.554657 0.554657 0)
(-0.000699577 0.000646 0)
(0 0 0)
(0 0 0)
(0 0 0)
(0 0 0)
(0 0 0)
(0 0 0)
(0 0 0)
(0 0 0)
(0 0 0)
(0 0 0)
(0 0 0)
(0 0 0)
(0 0 0)
(0 0 0)
(0 0 0)
(0 0 0)
(0 0 0)
(0 0 0)
(0 0 0)
(0 0 0)
(0 0 0)
(0 0 0)
(0 0 0)
(0 0 0)
(0 0 0)
(0 0 0)
(0 0 0)
(0 0 0)
(0 0 0)
(0 0 0)
(0.499723 0.436087 0)
(6.54683 6.11623 0)
(19.0915 19.0915 0)
(22.61 24.2915 0)
(12.2756 14.2628 0)
(2.88476 3.61726 0)
(-0.314709 -0.453565 0)
(-3.7318 -5.73712 0)
(-9.8652 -16.7446 0)
(-14.0335 -26.9558 0)
(-13.3335 -29.7582 0)
(-9.88926 -26.3222 0)
(-6.14236 -19.9827 0)
(-3.23328 -13.466 0)
(-1.52467 -8.84444 0)
(-0.644413 -6.20469 0)
(-0.177089 -5.09807 0)
(0.177089 -5.09807 0)
(0.644413 -6.20469 0)
(1.52467 -8.84444 0)
(3.23328 -13.466 0)
(6.14236 -19.9827 0)
(9.88926 -26.3222 0)
(13.3335 -29.7582 0)
(14.0335 -26.9558 0)
(9.8652 -16.7446 0)
(3.7318 -5.73712 0)
(0.314709 -0.453565 0)
(-2.88476 3.61726 0)
(-12.2756 14.2628 0)
(-22.61 24.2915 0)
(-19.0915 19.0915 0)
(-6.54683 6.11623 0)
(-0.499723 0.436087 0)
(0 0 0)
(0 0 0)
(0 0 0)
(0 0 0)
(0 0 0)
(0 0 0)
(0 0 0)
(0 0 0)
(0 0 0)
(0 0 0)
(0 0 0)
(0 0 0)
(0 0 0)
(0 0 0)
(0 0 0)
(0 0 0)
(0 0 0)
(0 0 0)
(0 0 0)
(0 0 0)
(0 0 0)
(0 0 0)
(0 0 0)
(0 0 0)
(0 0 0)
(0 0 0)
(0 0 0)
(0 0 0)
(0 0 0)
(0.228787 0.173976 0)
(5.49512 4.48678 0)
(19.4056 16.9292 0)
(24.2915 22.61 0)
(12.2749 12.2749 0)
(2.16644 2.33392 0)
(-1.13382 -1.341 0)
(-7.15124 -9.20316 0)
(-15.5115 -21.9398 0)
(-17.7868 -28.2332 0)
(-13.0044 -23.5773 0)
(-6.55492 -13.6891 0)
(-2.24951 -5.46149 0)
(-0.49363 -1.38636 0)
(-0.0438394 -0.14095 0)
(-0.000373829 -0.00137048 0)
(0 0 0)
(0 0 0)
(0 0 0)
(0 0 0)
(0.000373829 -0.00137048 0)
(0.0438394 -0.14095 0)
(0.49363 -1.38636 0)
(2.24951 -5.46149 0)
(6.55492 -13.6891 0)
(13.0044 -23.5773 0)
(17.7868 -28.2332 0)
(15.5115 -21.9398 0)
(7.15124 -9.20316 0)
(1.13382 -1.341 0)
(-2.16644 2.33392 0)
(-12.2749 12.2749 0)
(-24.2915 22.61 0)
(-19.4056 16.9292 0)
(-5.49512 4.48678 0)
(-0.228787 0.173976 0)
(0 0 0)
(0 0 0)
(0 0 0)
(0 0 0)
(0 0 0)
(0 0 0)
(0 0 0)
(0 0 0)
(0 0 0)
(0 0 0)
(0 0 0)
(0 0 0)
(0 0 0)
(0 0 0)
(0 0 0)
(0 0 0)
(0 0 0)
(0 0 0)
(0 0 0)
(0 0 0)
(0 0 0)
(0 0 0)
(0 0 0)
(0 0 0)
(0 0 0)
(0 0 0)
(0 0 0)
(0.0355419 0.0232467 0)
(3.40451 2.41609 0)
(17.599 13.3683 0)
(26.1853 21.1122 0)
(14.2628 12.2756 0)
(2.33392 2.16644 0)
(-1.57724 -1.57724 0)
(-9.75047 -10.597 0)
(-19.6819 -23.3819 0)
(-19.197 -25.3174 0)
(-10.2957 -15.2101 0)
(-2.9995 -4.9528 0)
(-0.372701 -0.684322 0)
(-0.0069092 -0.0138922 0)
(0 0 0)
(0 0 0)
(0 0 0)
(0 0 0)
(0 0 0)
(0 0 0)
(0 0 0)
(0 0 0)
(0 0 0)
(0 0 0)
(0.0069092 -0.0138922 0)
(0.372701 -0.684322 0)
(2.9995 -4.9528 0)
(10.2957 -15.2101 0)
(19.197 -25.3174 0)
(19.6819 -23.3819 0)
(9.75047 -10.597 0)
(1.57724 -1.57724 0)
(-2.33392 2.16644 0)
(-14.2628 12.2756 0)
(-26.1853 21.1122 0)
(-17.599 13.3683 0)
(-3.40451 2.41609 0)
(-0.0355419 0.0232467 0)
(0 0 0)
(0 0 0)
(0 0 0)
(0 0 0)
(0 0 0)
(0 0 0)
(0 0 0)
(0 0 0)
(0 0 0)
(0 0 0)
(0 0 0)
(0 0 0)
(0 0 0)
(0 0 0)
(0 0 0)
(0 0 0)
(0 0 0)
(0 0 0)
(0 0 0)
(0 0 0)
(0 0 0)
(0 0 0)
(0 0 0)
(0 0 0)
(0 0 0)
(0 0 0)
(1.25182 0.763508 0)
(13.3127 8.76188 0)
(27.2022 18.9937 0)
(18.6902 13.8197 0)
(3.61726 2.88476 0)
(-1.341 -1.13382 0)
(-10.597 -9.75047 0)
(-22.3479 -22.3479 0)
(-20.0487 -21.9812 0)
(-8.19214 -9.92512 0)
(-1.34782 -1.79972 0)
(-0.044003 -0.064234 0)
(0 0 0)
(0 0 0)
(0 0 0)
(0 0 0)
(0 0 0)
(0 0 0)
(0 0 0)
(0 0 0)
(0 0 0)
(0 0 0)
(0 0 0)
(0 0 0)
(0 0 0)
(0 0 0)
(0.044003 -0.064234 0)
(1.34782 -1.79972 0)
(8.19214 -9.92512 0)
(20.0487 -21.9812 0)
(22.3479 -22.3479 0)
(10.597 -9.75047 0)
(1.341 -1.13382 0)
(-3.61726 2.88476 0)
(-18.6902 13.8197 0)
(-27.2022 18.9937 0)
(-13.3127 8.76188 0)
(-1.25182 0.763508 0)
(0 0 0)
(0 0 0)
(0 0 0)
(0 0 0)
(0 0 0)
(0 0 0)
(0 0 0)
(0 0 0)
(0 0 0)
(0 0 0)
(0 0 0)
(0 0 0)
(0 0 0)
(0 0 0)
(0 0 0)
(0 0 0)
(0 0 0)
(0 0 0)
(0 0 0)
(0 0 0)
(0 0 0)
(0 0 0)
(0 0 0)
(0 0 0)
(0 0 0)
(0.136292 0.0693001 0)
(7.112 4.01518 0)
(24.9162 15.0207 0)
(24.6681 15.6305 0)
(6.96655 4.73254 0)
(-0.453565 -0.314709 0)
(-9.20316 -7.15124 0)
(-23.3819 -19.6819 0)
(-21.9812 -20.0487 0)
(-7.9486 -7.9486 0)
(-0.844947 -0.929727 0)
(-0.00626367 -0.00755356 0)
(0 0 0)
(0 0 0)
(0 0 0)
(0 0 0)
(0 0 0)
(0 0 0)
(0 0 0)
(0 0 0)
(0 0 0)
(0 0 0)
(0 0 0)
(0 0 0)
(0 0 0)
(0 0 0)
(0 0 0)
(0 0 0)
(0.00626367 -0.00755356 0)
(0.844947 -0.929727 0)
(7.9486 -7.9486 0)
(21.9812 -20.0487 0)
(23.3819 -19.6819 0)
(9.20316 -7.15124 0)
(0.453565 -0.314709 0)
(-6.96655 4.73254 0)
(-24.6681 15.6305 0)
(-24.9162 15.0207 0)
(-7.112 4.01518 0)
(-0.136292 0.0693001 0)
(0 0 0)
(0 0 0)
(0 0 0)
(0 0 0)
(0 0 0)
(0 0 0)
(0 0 0)
(0 0 0)
(0 0 0)
(0 0 0)
(0 0 0)
(0 0 0)
(0 0 0)
(0 0 0)
(0 0 0)
(0 0 0)
(0 0 0)
(0 0 0)
(0 0 0)
(0 0 0)
(0 0 0)
(0 0 0)
(0 0 0)
(0 0 0)
(1.87618 0.890473 0)
(17.7893 9.17932 0)
(28.996 15.7312 0)
(14.1608 8.1183 0)
(0.959371 0.606795 0)
(-5.73712 -3.7318 0)
(-21.9398 -15.5115 0)
(-25.3174 -19.197 0)
(-9.92512 -8.19214 0)
(-0.929727 -0.844947 0)
(-0.000906328 -0.000906328 0)
(0 0 0)
(0 0 0)
(0 0 0)
(0 0 0)
(0 0 0)
(0 0 0)
(0 0 0)
(0 0 0)
(0 0 0)
(0 0 0)
(0 0 0)
(0 0 0)
(0 0 0)
(0 0 0)
(0 0 0)
(0 0 0)
(0 0 0)
(0 0 0)
(0.000906328 -0.000906328 0)
(0.929727 -0.844947 0)
(9.92512 -8.19214 0)
(25.3174 -19.197 0)
(21.9398 -15.5115 0)
(5.73712 -3.7318 0)
(-0.959371 0.606795 0)
(-14.1608 8.1183 0)
(-28.996 15.7312 0)
(-17.7893 9.17932 0)
(-1.87618 0.890473 0)
(0 0 0)
(0 0 0)
(0 0 0)
(0 0 0)
(0 0 0)
(0 0 0)
(0 0 0)
(0 0 0)
(0 0 0)
(0 0 0)
(0 0 0)
(0 0 0)
(0 0 0)
(0 0 0)
(0 0 0)
(0 0 0)
(0 0 0)
(0 0 0)
(0 0 0)
(0 0 0)
(0 0 0)
(0 0 0)
(0 0 0)
(0.0623403 0.0234877 0)
(7.59378 3.28875 0)
(27.0474 12.5007 0)
(24.3605 11.7547 0)
(4.87276 2.53671 0)
(-1.90098 -1.01513 0)
(-16.7446 -9.8652 0)
(-28.2332 -17.7868 0)
(-15.2101 -10.2957 0)
(-1.79972 -1.34782 0)
(-0.00755356 -0.00626367 0)
(0 0 0)
(0 0 0)
(0 0 0)
(0 0 0)
(0 0 0)
(0 0 0)
(0 0 0)
(0 0 0)
(0 0 0)
(0 0 0)
(0 0 0)
(0 0 0)
(0 0 0)
(0 0 0)
(0 0 0)
(0 0 0)
(0 0 0)
(0 0 0)
(0 0 0)
(0 0 0)
(0.00755356 -0.00626367 0)
(1.79972 -1.34782 0)
(15.2101 -10.2957 0)
(28.2332 -17.7868 0)
(16.7446 -9.8652 0)
(1.90098 -1.01513 0)
(-4.87276 2.53671 0)
(-24.3605 11.7547 0)
(-27.0474 12.5007 0)
(-7.59378 3.28875 0)
(-0.0623403 0.0234877 0)
(0 0 0)
(0 0 0)
(0 0 0)
(0 0 0)
(0 0 0)
(0 0 0)
(0 0 0)
(0 0 0)
(0 0 0)
(0 0 0)
(0 0 0)
(0 0 0)
(0 0 0)
(0 0 0)
(0 0 0)
(0 0 0)
(0 0 0)
(0 0 0)
(0 0 0)
(0 0 0)
(0 0 0)
(0 0 0)
(0.941584 0.326184 0)
(16.6226 6.42458 0)
(30.2455 12.2684 0)
(15.3742 6.55459 0)
(0.676203 0.329419 0)
(-8.40051 -4.0398 0)
(-26.9558 -14.0335 0)
(-23.5773 -13.0044 0)
(-4.9528 -2.9995 0)
(-0.064234 -0.044003 0)
(0 0 0)
(0 0 0)
(0 0 0)
(0 0 0)
(0 0 0)
(0 0 0)
(0 0 0)
(0 0 0)
(0 0 0)
(0 0 0)
(0 0 0)
(0 0 0)
(0 0 0)
(0 0 0)
(0 0 0)
(0 0 0)
(0 0 0)
(0 0 0)
(0 0 0)
(0 0 0)
(0 0 0)
(0 0 0)
(0.064234 -0.044003 0)
(4.9528 -2.9995 0)
(23.5773 -13.0044 0)
(26.9558 -14.0335 0)
(8.40051 -4.0398 0)
(-0.676203 0.329419 0)
(-15.3742 6.55459 0)
(-30.2455 12.2684 0)
(-16.6226 6.42458 0)
(-0.941584 0.326184 0)
(0 0 0)
(0 0 0)
(0 0 0)
(0 0 0)
(0 0 0)
(0 0 0)
(0 0 0)
(0 0 0)
(0 0 0)
(0 0 0)
(0 0 0)
(0 0 0)
(0 0 0)
(0 0 0)
(0 0 0)
(0 0 0)
(0 0 0)
(0 0 0)
(0 0 0)
(0 0 0)
(0 0 0)
(0 0 0)
(3.97839 1.23533 0)
(24.7981 8.33858 0)
(27.991 9.77722 0)
(7.19976 2.68635 0)
(-1.49612 -0.560098 0)
(-18.2781 -7.72377 0)
(-29.7582 -13.3335 0)
(-13.6891 -6.55492 0)
(-0.684322 -0.372701 0)
(0 0 0)
(0 0 0)
(0 0 0)
(0 0 0)
(0 0 0)
(0 0 0)
(0 0 0)
(0 0 0)
(0 0 0)
(0 0 0)
(0 0 0)
(0 0 0)
(0 0 0)
(0 0 0)
(0 0 0)
(0 0 0)
(0 0 0)
(0 0 0)
(0 0 0)
(0 0 0)
(0 0 0)
(0 0 0)
(0 0 0)
(0 0 0)
(0.684322 -0.372701 0)
(13.6891 -6.55492 0)
(29.7582 -13.3335 0)
(18.2781 -7.72377 0)
(1.49612 -0.560098 0)
(-7.19976 2.68635 0)
(-27.991 9.77722 0)
(-24.7981 8.33858 0)
(-3.97839 1.23533 0)
(0 0 0)
(0 0 0)
(0 0 0)
(0 0 0)
(0 0 0)
(0 0 0)
(0 0 0)
(0 0 0)
(0 0 0)
(0 0 0)
(0 0 0)
(0 0 0)
(0 0 0)
(0 0 0)
(0 0 0)
(0 0 0)
(0 0 0)
(0 0 0)
(0 0 0)
(0 0 0)
(0 0 0)
(0.00980328 0.00198472 0)
(9.22043 2.46637 0)
(29.5996 8.39467 0)
(22.7747 6.7073 0)
(2.38539 0.777285 0)
(-5.67367 -1.86035 0)
(-26.5478 -9.50727 0)
(-26.3222 -9.88926 0)
(-5.46149 -2.24951 0)
(-0.0138922 -0.0069092 0)
(0 0 0)
(0 0 0)
(0 0 0)
(0 0 0)
(0 0 0)
(0 0 0)
(0 0 0)
(0 0 0)
(0 0 0)
(0 0 0)
(0 0 0)
(0 0 0)
(0 0 0)
(0 0 0)
(0 0 0)
(0 0 0)
(0 0 0)
(0 0 0)
(0 0 0)
(0 0 0)
(0 0 0)
(0 0 0)
(0 0 0)
(0 0 0)
(0.0138922 -0.0069092 0)
(5.46149 -2.24951 0)
(26.3222 -9.88926 0)
(26.5478 -9.50727 0)
(5.67367 -1.86035 0)
(-2.38539 0.777285 0)
(-22.7747 6.7073 0)
(-29.5996 8.39467 0)
(-9.22043 2.46637 0)
(-0.00980328 0.00198472 0)
(0 0 0)
(0 0 0)
(0 0 0)
(0 0 0)
(0 0 0)
(0 0 0)
(0 0 0)
(0 0 0)
(0 0 0)
(0 0 0)
(0 0 0)
(0 0 0)
(0 0 0)
(0 0 0)
(0 0 0)
(0 0 0)
(0 0 0)
(0 0 0)
(0 0 0)
(0 0 0)
(0.222357 0.0393254 0)
(15.3448 3.37876 0)
(31.3332 7.2396 0)
(16.6494 4.02638 0)
(0.358318 0.110073 0)
(-12.0053 -3.2754 0)
(-30.5213 -8.90798 0)
(-19.9827 -6.14236 0)
(-1.38636 -0.49363 0)
(0 0 0)
(0 0 0)
(0 0 0)
(0 0 0)
(0 0 0)
(0 0 0)
(0 0 0)
(0 0 0)
(0 0 0)
(0 0 0)
(0 0 0)
(0 0 0)
(0 0 0)
(0 0 0)
(0 0 0)
(0 0 0)
(0 0 0)
(0 0 0)
(0 0 0)
(0 0 0)
(0 0 0)
(0 0 0)
(0 0 0)
(0 0 0)
(0 0 0)
(0 0 0)
(1.38636 -0.49363 0)
(19.9827 -6.14236 0)
(30.5213 -8.90798 0)
(12.0053 -3.2754 0)
(-0.358318 0.110073 0)
(-16.6494 4.02638 0)
(-31.3332 7.2396 0)
(-15.3448 3.37876 0)
(-0.222357 0.0393254 0)
(0 0 0)
(0 0 0)
(0 0 0)
(0 0 0)
(0 0 0)
(0 0 0)
(0 0 0)
(0 0 0)
(0 0 0)
(0 0 0)
(0 0 0)
(0 0 0)
(0 0 0)
(0 0 0)
(0 0 0)
(0 0 0)
(0 0 0)
(0 0 0)
(0 0 0)
(0 0 0)
(1.05061 0.154063 0)
(20.6511 3.55722 0)
(30.9236 5.54 0)
(11.3445 2.14173 0)
(-0.651455 -0.110015 0)
(-18.5148 -3.95313 0)
(-31.167 -7.02767 0)
(-13.466 -3.23328 0)
(-0.14095 -0.0438394 0)
(0 0 0)
(0 0 0)
(0 0 0)
(0 0 0)
(0 0 0)
(0 0 0)
(0 0 0)
(0 0 0)
(0 0 0)
(0 0 0)
(0 0 0)
(0 0 0)
(0 0 0)
(0 0 0)
(0 0 0)
(0 0 0)
(0 0 0)
(0 0 0)
(0 0 0)
(0 0 0)
(0 0 0)
(0 0 0)
(0 0 0)
(0 0 0)
(0 0 0)
(0 0 0)
(0.14095 -0.0438394 0)
(13.466 -3.23328 0)
(31.167 -7.02767 0)
(18.5148 -3.95313 0)
(0.651455 -0.110015 0)
(-11.3445 2.14173 0)
(-30.9236 5.54 0)
(-20.6511 3.55722 0)
(-1.05061 0.154063 0)
(0 0 0)
(0 0 0)
(0 0 0)
(0 0 0)
(0 0 0)
(0 0 0)
(0 0 0)
(0 0 0)
(0 0 0)
(0 0 0)
(0 0 0)
(0 0 0)
(0 0 0)
(0 0 0)
(0 0 0)
(0 0 0)
(0 0 0)
(0 0 0)
(0 0 0)
(0 0 0)
(2.40724 0.265219 0)
(24.1488 2.97843 0)
(29.5966 3.77481 0)
(7.85551 1.06077 0)
(-1.99114 -0.261885 0)
(-23.2214 -3.56566 0)
(-30.073 -4.8289 0)
(-8.84444 -1.52467 0)
(-0.00137048 -0.000373829 0)
(0 0 0)
(0 0 0)
(0 0 0)
(0 0 0)
(0 0 0)
(0 0 0)
(0 0 0)
(0 0 0)
(0 0 0)
(0 0 0)
(0 0 0)
(0 0 0)
(0 0 0)
(0 0 0)
(0 0 0)
(0 0 0)
(0 0 0)
(0 0 0)
(0 0 0)
(0 0 0)
(0 0 0)
(0 0 0)
(0 0 0)
(0 0 0)
(0 0 0)
(0 0 0)
(0.00137048 -0.000373829 0)
(8.84444 -1.52467 0)
(30.073 -4.8289 0)
(23.2214 -3.56566 0)
(1.99114 -0.261885 0)
(-7.85551 1.06077 0)
(-29.5966 3.77481 0)
(-24.1488 2.97843 0)
(-2.40724 0.265219 0)
(0 0 0)
(0 0 0)
(0 0 0)
(0 0 0)
(0 0 0)
(0 0 0)
(0 0 0)
(0 0 0)
(0 0 0)
(0 0 0)
(0 0 0)
(0 0 0)
(0 0 0)
(0 0 0)
(0 0 0)
(0 0 0)
(0 0 0)
(0 0 0)
(0 0 0)
(0 0 0)
(3.6687 0.248099 0)
(26.12 1.92981 0)
(28.3447 2.16172 0)
(5.89441 0.480115 0)
(-3.4272 -0.282321 0)
(-25.6929 -2.37031 0)
(-28.4693 -2.7323 0)
(-6.20469 -0.644413 0)
(0 0 0)
(0 0 0)
(0 0 0)
(0 0 0)
(0 0 0)
(0 0 0)
(0 0 0)
(0 0 0)
(0 0 0)
(0 0 0)
(0 0 0)
(0 0 0)
(0 0 0)
(0 0 0)
(0 0 0)
(0 0 0)
(0 0 0)
(0 0 0)
(0 0 0)
(0 0 0)
(0 0 0)
(0 0 0)
(0 0 0)
(0 0 0)
(0 0 0)
(0 0 0)
(0 0 0)
(0 0 0)
(6.20469 -0.644413 0)
(28.4693 -2.7323 0)
(25.6929 -2.37031 0)
(3.4272 -0.282321 0)
(-5.89441 0.480115 0)
(-28.3447 2.16172 0)
(-26.12 1.92981 0)
(-3.6687 0.248099 0)
(0 0 0)
(0 0 0)
(0 0 0)
(0 0 0)
(0 0 0)
(0 0 0)
(0 0 0)
(0 0 0)
(0 0 0)
(0 0 0)
(0 0 0)
(0 0 0)
(0 0 0)
(0 0 0)
(0 0 0)
(0 0 0)
(0 0 0)
(0 0 0)
(0 0 0)
(0 0 0)
(4.38319 0.0996028 0)
(26.9755 0.663587 0)
(27.5976 0.700418 0)
(5.00504 0.136886 0)
(-4.32168 -0.119462 0)
(-26.9462 -0.825367 0)
(-27.7229 -0.882541 0)
(-5.09807 -0.177089 0)
(0 0 0)
(0 0 0)
(0 0 0)
(0 0 0)
(0 0 0)
(0 0 0)
(0 0 0)
(0 0 0)
(0 0 0)
(0 0 0)
(0 0 0)
(0 0 0)
(0 0 0)
(0 0 0)
(0 0 0)
(0 0 0)
(0 0 0)
(0 0 0)
(0 0 0)
(0 0 0)
(0 0 0)
(0 0 0)
(0 0 0)
(0 0 0)
(0 0 0)
(0 0 0)
(0 0 0)
(0 0 0)
(5.09807 -0.177089 0)
(27.7229 -0.882541 0)
(26.9462 -0.825367 0)
(4.32168 -0.119462 0)
(-5.00504 0.136886 0)
(-27.5976 0.700418 0)
(-26.9755 0.663587 0)
(-4.38319 0.0996028 0)
(0 0 0)
(0 0 0)
(0 0 0)
(0 0 0)
(0 0 0)
(0 0 0)
(0 0 0)
(0 0 0)
(0 0 0)
(0 0 0)
(0 0 0)
(0 0 0)
(0 0 0)
(0 0 0)
(0 0 0)
(0 0 0)
(0 0 0)
(0 0 0)
(0 0 0)
(0 0 0)
(4.38319 -0.0996028 0)
(26.9755 -0.663587 0)
(27.5976 -0.700418 0)
(5.00504 -0.136886 0)
(-4.32168 0.119462 0)
(-26.9462 0.825367 0)
(-27.7229 0.882541 0)
(-5.09807 0.177089 0)
(0 0 0)
(0 0 0)
(0 0 0)
(0 0 0)
(0 0 0)
(0 0 0)
(0 0 0)
(0 0 0)
(0 0 0)
(0 0 0)
(0 0 0)
(0 0 0)
(0 0 0)
(0 0 0)
(0 0 0)
(0 0 0)
(0 0 0)
(0 0 0)
(0 0 0)
(0 0 0)
(0 0 0)
(0 0 0)
(0 0 0)
(0 0 0)
(0 0 0)
(0 0 0)
(0 0 0)
(0 0 0)
(5.09807 0.177089 0)
(27.7229 0.882541 0)
(26.9462 0.825367 0)
(4.32168 0.119462 0)
(-5.00504 -0.136886 0)
(-27.5976 -0.700418 0)
(-26.9755 -0.663587 0)
(-4.38319 -0.0996028 0)
(0 0 0)
(0 0 0)
(0 0 0)
(0 0 0)
(0 0 0)
(0 0 0)
(0 0 0)
(0 0 0)
(0 0 0)
(0 0 0)
(0 0 0)
(0 0 0)
(0 0 0)
(0 0 0)
(0 0 0)
(0 0 0)
(0 0 0)
(0 0 0)
(0 0 0)
(0 0 0)
(3.6687 -0.248099 0)
(26.12 -1.92981 0)
(28.3447 -2.16172 0)
(5.89441 -0.480115 0)
(-3.4272 0.282321 0)
(-25.6929 2.37031 0)
(-28.4693 2.7323 0)
(-6.20469 0.644413 0)
(0 0 0)
(0 0 0)
(0 0 0)
(0 0 0)
(0 0 0)
(0 0 0)
(0 0 0)
(0 0 0)
(0 0 0)
(0 0 0)
(0 0 0)
(0 0 0)
(0 0 0)
(0 0 0)
(0 0 0)
(0 0 0)
(0 0 0)
(0 0 0)
(0 0 0)
(0 0 0)
(0 0 0)
(0 0 0)
(0 0 0)
(0 0 0)
(0 0 0)
(0 0 0)
(0 0 0)
(0 0 0)
(6.20469 0.644413 0)
(28.4693 2.7323 0)
(25.6929 2.37031 0)
(3.4272 0.282321 0)
(-5.89441 -0.480115 0)
(-28.3447 -2.16172 0)
(-26.12 -1.92981 0)
(-3.6687 -0.248099 0)
(0 0 0)
(0 0 0)
(0 0 0)
(0 0 0)
(0 0 0)
(0 0 0)
(0 0 0)
(0 0 0)
(0 0 0)
(0 0 0)
(0 0 0)
(0 0 0)
(0 0 0)
(0 0 0)
(0 0 0)
(0 0 0)
(0 0 0)
(0 0 0)
(0 0 0)
(0 0 0)
(2.40724 -0.265219 0)
(24.1488 -2.97843 0)
(29.5966 -3.77481 0)
(7.85551 -1.06077 0)
(-1.99114 0.261885 0)
(-23.2214 3.56566 0)
(-30.073 4.8289 0)
(-8.84444 1.52467 0)
(-0.00137048 0.000373829 0)
(0 0 0)
(0 0 0)
(0 0 0)
(0 0 0)
(0 0 0)
(0 0 0)
(0 0 0)
(0 0 0)
(0 0 0)
(0 0 0)
(0 0 0)
(0 0 0)
(0 0 0)
(0 0 0)
(0 0 0)
(0 0 0)
(0 0 0)
(0 0 0)
(0 0 0)
(0 0 0)
(0 0 0)
(0 0 0)
(0 0 0)
(0 0 0)
(0 0 0)
(0 0 0)
(0.00137048 0.000373829 0)
(8.84444 1.52467 0)
(30.073 4.8289 0)
(23.2214 3.56566 0)
(1.99114 0.261885 0)
(-7.85551 -1.06077 0)
(-29.5966 -3.77481 0)
(-24.1488 -2.97843 0)
(-2.40724 -0.265219 0)
(0 0 0)
(0 0 0)
(0 0 0)
(0 0 0)
(0 0 0)
(0 0 0)
(0 0 0)
(0 0 0)
(0 0 0)
(0 0 0)
(0 0 0)
(0 0 0)
(0 0 0)
(0 0 0)
(0 0 0)
(0 0 0)
(0 0 0)
(0 0 0)
(0 0 0)
(0 0 0)
(1.05061 -0.154063 0)
(20.6511 -3.55722 0)
(30.9236 -5.54 0)
(11.3445 -2.14173 0)
(-0.651455 0.110015 0)
(-18.5148 3.95313 0)
(-31.167 7.02767 0)
(-13.466 3.23328 0)
(-0.14095 0.0438394 0)
(0 0 0)
(0 0 0)
(0 0 0)
(0 0 0)
(0 0 0)
(0 0 0)
(0 0 0)
(0 0 0)
(0 0 0)
(0 0 0)
(0 0 0)
(0 0 0)
(0 0 0)
(0 0 0)
(0 0 0)
(0 0 0)
(0 0 0)
(0 0 0)
(0 0 0)
(0 0 0)
(0 0 0)
(0 0 0)
(0 0 0)
(0 0 0)
(0 0 0)
(0 0 0)
(0.14095 0.0438394 0)
(13.466 3.23328 0)
(31.167 7.02767 0)
(18.5148 3.95313 0)
(0.651455 0.110015 0)
(-11.3445 -2.14173 0)
(-30.9236 -5.54 0)
(-20.6511 -3.55722 0)
(-1.05061 -0.154063 0)
(0 0 0)
(0 0 0)
(0 0 0)
(0 0 0)
(0 0 0)
(0 0 0)
(0 0 0)
(0 0 0)
(0 0 0)
(0 0 0)
(0 0 0)
(0 0 0)
(0 0 0)
(0 0 0)
(0 0 0)
(0 0 0)
(0 0 0)
(0 0 0)
(0 0 0)
(0 0 0)
(0.222357 -0.0393254 0)
(15.3448 -3.37876 0)
(31.3332 -7.2396 0)
(16.6494 -4.02638 0)
(0.358318 -0.110073 0)
(-12.0053 3.2754 0)
(-30.5213 8.90798 0)
(-19.9827 6.14236 0)
(-1.38636 0.49363 0)
(0 0 0)
(0 0 0)
(0 0 0)
(0 0 0)
(0 0 0)
(0 0 0)
(0 0 0)
(0 0 0)
(0 0 0)
(0 0 0)
(0 0 0)
(0 0 0)
(0 0 0)
(0 0 0)
(0 0 0)
(0 0 0)
(0 0 0)
(0 0 0)
(0 0 0)
(0 0 0)
(0 0 0)
(0 0 0)
(0 0 0)
(0 0 0)
(0 0 0)
(0 0 0)
(1.38636 0.49363 0)
(19.9827 6.14236 0)
(30.5213 8.90798 0)
(12.0053 3.2754 0)
(-0.358318 -0.110073 0)
(-16.6494 -4.02638 0)
(-31.3332 -7.2396 0)
(-15.3448 -3.37876 0)
(-0.222357 -0.0393254 0)
(0 0 0)
(0 0 0)
(0 0 0)
(0 0 0)
(0 0 0)
(0 0 0)
(0 0 0)
(0 0 0)
(0 0 0)
(0 0 0)
(0 0 0)
(0 0 0)
(0 0 0)
(0 0 0)
(0 0 0)
(0 0 0)
(0 0 0)
(0 0 0)
(0 0 0)
(0 0 0)
(0.00980328 -0.00198472 0)
(9.22043 -2.46637 0)
(29.5996 -8.39467 0)
(22.7747 -6.7073 0)
(2.38539 -0.777285 0)
(-5.67367 1.86035 0)
(-26.5478 9.50727 0)
(-26.3222 9.88926 0)
(-5.46149 2.24951 0)
(-0.0138922 0.0069092 0)
(0 0 0)
(0 0 0)
(0 0 0)
(0 0 0)
(0 0 0)
(0 0 0)
(0 0 0)
(0 0 0)
(0 0 0)
(0 0 0)
(0 0 0)
(0 0 0)
(0 0 0)
(0 0 0)
(0 0 0)
(0 0 0)
(0 0 0)
(0 0 0)
(0 0 0)
(0 0 0)
(0 0 0)
(0 0 0)
(0 0 0)
(0 0 0)
(0.0138922 0.0069092 0)
(5.46149 2.24951 0)
(26.3222 9.88926 0)
(26.5478 9.50727 0)
(5.67367 1.86035 0)
(-2.38539 -0.777285 0)
(-22.7747 -6.7073 0)
(-29.5996 -8.39467 0)
(-9.22043 -2.46637 0)
(-0.00980328 -0.00198472 0)
(0 0 0)
(0 0 0)
(0 0 0)
(0 0 0)
(0 0 0)
(0 0 0)
(0 0 0)
(0 0 0)
(0 0 0)
(0 0 0)
(0 0 0)
(0 0 0)
(0 0 0)
(0 0 0)
(0 0 0)
(0 0 0)
(0 0 0)
(0 0 0)
(0 0 0)
(0 0 0)
(0 0 0)
(3.97839 -1.23533 0)
(24.7981 -8.33858 0)
(27.991 -9.77722 0)
(7.19976 -2.68635 0)
(-1.49612 0.560098 0)
(-18.2781 7.72377 0)
(-29.7582 13.3335 0)
(-13.6891 6.55492 0)
(-0.684322 0.372701 0)
(0 0 0)
(0 0 0)
(0 0 0)
(0 0 0)
(0 0 0)
(0 0 0)
(0 0 0)
(0 0 0)
(0 0 0)
(0 0 0)
(0 0 0)
(0 0 0)
(0 0 0)
(0 0 0)
(0 0 0)
(0 0 0)
(0 0 0)
(0 0 0)
(0 0 0)
(0 0 0)
(0 0 0)
(0 0 0)
(0 0 0)
(0 0 0)
(0.684322 0.372701 0)
(13.6891 6.55492 0)
(29.7582 13.3335 0)
(18.2781 7.72377 0)
(1.49612 0.560098 0)
(-7.19976 -2.68635 0)
(-27.991 -9.77722 0)
(-24.7981 -8.33858 0)
(-3.97839 -1.23533 0)
(0 0 0)
(0 0 0)
(0 0 0)
(0 0 0)
(0 0 0)
(0 0 0)
(0 0 0)
(0 0 0)
(0 0 0)
(0 0 0)
(0 0 0)
(0 0 0)
(0 0 0)
(0 0 0)
(0 0 0)
(0 0 0)
(0 0 0)
(0 0 0)
(0 0 0)
(0 0 0)
(0 0 0)
(0 0 0)
(0.941584 -0.326184 0)
(16.6226 -6.42458 0)
(30.2455 -12.2684 0)
(15.3742 -6.55459 0)
(0.676203 -0.329419 0)
(-8.40051 4.0398 0)
(-26.9558 14.0335 0)
(-23.5773 13.0044 0)
(-4.9528 2.9995 0)
(-0.064234 0.044003 0)
(0 0 0)
(0 0 0)
(0 0 0)
(0 0 0)
(0 0 0)
(0 0 0)
(0 0 0)
(0 0 0)
(0 0 0)
(0 0 0)
(0 0 0)
(0 0 0)
(0 0 0)
(0 0 0)
(0 0 0)
(0 0 0)
(0 0 0)
(0 0 0)
(0 0 0)
(0 0 0)
(0 0 0)
(0 0 0)
(0.064234 0.044003 0)
(4.9528 2.9995 0)
(23.5773 13.0044 0)
(26.9558 14.0335 0)
(8.40051 4.0398 0)
(-0.676203 -0.329419 0)
(-15.3742 -6.55459 0)
(-30.2455 -12.2684 0)
(-16.6226 -6.42458 0)
(-0.941584 -0.326184 0)
(0 0 0)
(0 0 0)
(0 0 0)
(0 0 0)
(0 0 0)
(0 0 0)
(0 0 0)
(0 0 0)
(0 0 0)
(0 0 0)