/*--------------------------------*- C++ -*----------------------------------*\
| =========                 |                                                 |
| \\      /  F ield         | OpenFOAM: The Open Source CFD Toolbox           |
|  \\    /   O peration     | Version:  v1806                                 |
|   \\  /    A nd           | Web:      www.OpenFOAM.com                      |
|    \\/     M anipulation  |                                                 |
\*---------------------------------------------------------------------------*/
FoamFile
{
    version     2.0;
    format      ascii;
    class       volScalarField;
    location    "0.001";
    object      p;
}
// * * * * * * * * * * * * * * * * * * * * * * * * * * * * * * * * * * * * * //

dimensions      [0 2 -2 0 0 0 0];


internalField   nonuniform List<scalar> 
4096
(
3.55948e-07
3.93842e-06
1.04685e-05
1.8541e-05
2.81585e-05
3.95025e-05
5.26891e-05
6.77601e-05
8.45709e-05
0.000103034
0.000123074
0.000144488
0.000166971
0.000190028
0.000212969
0.000235116
0.00025581
0.000274157
0.000289082
0.000299709
0.000305541
0.000306348
0.000302026
0.000292651
0.000278846
0.000261783
0.00024274
0.000223213
0.000205047
0.000189782
0.000178564
0.000172498
0.000172156
0.000177352
0.000187703
0.000202495
0.000220303
0.000239531
0.000258693
0.00027614
0.000290466
0.000300815
0.00030653
0.000307113
0.000302476
0.000292929
0.000279032
0.000261459
0.000240954
0.000218434
0.00019495
0.000171399
0.000148405
0.000126447
0.000105916
8.70483e-05
6.99566e-05
5.47215e-05
4.13682e-05
2.98206e-05
2.0015e-05
1.19159e-05
5.33295e-06
8.99682e-07
5.65228e-06
9.59004e-06
1.67106e-05
2.57172e-05
3.66904e-05
4.96997e-05
6.47828e-05
8.19681e-05
0.000101066
0.000121837
0.000144027
0.000167287
0.000191177
0.000215164
0.000238569
0.000260634
0.000280626
0.000297789
0.000311269
0.000320234
0.000324074
0.000322482
0.000315416
0.000303032
0.00028585
0.000264953
0.000241799
0.000218117
0.000195956
0.000177262
0.000163502
0.000155789
0.000154771
0.000160387
0.000172097
0.000189021
0.000209724
0.000232414
0.000255341
0.000276835
0.000295458
0.000310214
0.000320434
0.000325633
0.000325548
0.000320182
0.000309776
0.000294769
0.000275765
0.000253544
0.000229093
0.000203489
0.000177716
0.000152616
0.000128889
0.000107022
8.72395e-05
6.95719e-05
5.39852e-05
4.04074e-05
2.88008e-05
1.90955e-05
1.13189e-05
6.21373e-06
1.41486e-05
1.85327e-05
2.64375e-05
3.69054e-05
4.97901e-05
6.50543e-05
8.27105e-05
0.00010267
0.000124703
0.000148506
0.000173664
0.000199644
0.000225844
0.000251629
0.000276279
0.000298993
0.000318952
0.000335358
0.000347409
0.000354337
0.000355499
0.000350485
0.000339206
0.000321897
0.000299142
0.000272045
0.000242266
0.00021193
0.00018355
0.000159634
0.00014219
0.00013261
0.000131613
0.000139098
0.000154249
0.000175742
0.000201753
0.000230056
0.000258469
0.000285143
0.000308628
0.000327911
0.000342347
0.000351569
0.000355386
0.000353751
0.00034675
0.000334597
0.00031764
0.000296409
0.000271696
0.000244556
0.00021618
0.000187756
0.000160328
0.000134689
0.000111321
9.04114e-05
7.19387e-05
5.57822e-05
4.19095e-05
3.02296e-05
2.09243e-05
1.50794e-05
2.42125e-05
2.89982e-05
3.81046e-05
5.0262e-05
6.51851e-05
8.28074e-05
0.000103083
0.000125813
0.000150728
0.000177472
0.000205563
0.000234391
0.000263264
0.000291437
0.00031811
0.000342401
0.000363378
0.000380098
0.000391638
0.00039714
0.000395888
0.000387401
0.000371567
0.000348694
0.000319498
0.000285158
0.000247466
0.000208991
0.00017299
0.000142842
0.0001214
0.000110579
0.000111135
0.000122682
0.00014391
0.000172762
0.000206633
0.000242512
0.000277502
0.000309433
0.000336876
0.000358921
0.000375065
0.000385182
0.000389429
0.00038815
0.00038176
0.000370643
0.000355085
0.00033532
0.000311684
0.000284759
0.00025545
0.000224942
0.000194533
0.000165385
0.000138335
0.000113896
9.22748e-05
7.33912e-05
5.70735e-05
4.32305e-05
3.21936e-05
2.535e-05
3.60372e-05
4.14448e-05
5.19255e-05
6.60178e-05
8.32501e-05
0.000103534
0.000126712
0.000152508
0.000180603
0.000210574
0.000241874
0.000273852
0.000305762
0.000336779
0.000365998
0.000392423
0.000414982
0.000432562
0.000444066
0.000448488
0.000445007
0.000433107
0.000412702
0.000384208
0.000348478
0.000306661
0.000260359
0.000212348
0.000166804
0.000128417
0.000101475
8.90649e-05
9.2167e-05
0.000109928
0.000140385
0.000180246
0.000225456
0.000271651
0.000314967
0.000353051
0.000384776
0.000409386
0.00042642
0.000435872
0.000438175
0.00043412
0.000424734
0.000411064
0.000393948
0.00037384
0.000350816
0.000324809
0.000295946
0.000264794
0.00023241
0.000200169
0.00016939
0.000141045
0.000115704
9.35903e-05
7.45241e-05
5.82501e-05
4.52346e-05
3.71504e-05
4.98186e-05
5.60418e-05
6.80855e-05
8.43193e-05
0.000104135
0.000127405
0.000153839
0.000183089
0.000214759
0.000248335
0.000283196
0.000318644
0.000353893
0.000388047
0.000420104
0.000448954
0.00047341
0.00049224
0.000504212
0.000508182
0.000503211
0.000488705
0.000464561
0.000431209
0.000389601
0.000340722
0.000285228
0.000225066
0.00016502
0.000111967
7.36993e-05
5.65149e-05
6.1819e-05
8.76749e-05
0.000131478
0.000187434
0.000248595
0.000308556
0.000362598
0.000408842
0.000446843
0.000475844
0.000495244
0.000505081
0.000505924
0.000498746
0.000484836
0.000465756
0.000443179
0.000418542
0.000392634
0.000365457
0.000336527
0.000305443
0.000272342
0.000238084
0.000204111
0.000171928
0.000142589
0.000116691
9.44332e-05
7.55395e-05
6.04632e-05
5.11012e-05
6.5544e-05
7.27059e-05
8.64842e-05
0.000104993
0.000127567
0.000153991
0.000183871
0.000216787
0.000252236
0.000289603
0.000328206
0.000367306
0.000406071
0.000443549
0.000478674
0.000510292
0.000537184
0.000558083
0.000571706
0.000576794
0.000572182
0.000556935
0.000530541
0.000492992
0.000445315
0.000388864
0.0003227
0.000245393
0.000160213
7.78601e-05
1.55985e-05
-1.18033e-05
-4.16518e-06
3.29464e-05
9.86939e-05
0.000181105
0.000265547
0.000342617
0.000409023
0.00046571
0.000513052
0.000549134
0.000572793
0.000584349
0.000584864
0.000575841
0.000558762
0.00053503
0.000506255
0.000474436
0.000441621
0.000409178
0.000377276
0.000345089
0.000311627
0.000276546
0.000240553
0.000205203
0.000172149
0.000142444
0.000116674
9.49211e-05
7.7733e-05
6.716e-05
8.32798e-05
9.13909e-05
0.00010694
0.000127757
0.000153132
0.00018272
0.000216064
0.000252659
0.000291884
0.000333041
0.000375399
0.000418185
0.000460538
0.000501504
0.000540058
0.00057512
0.000605557
0.000630172
0.000647685
0.000656628
0.000655212
0.00064144
0.00061359
0.000570017
0.000511415
0.000443033
0.00036638
0.000271011
0.000145821
6.3683e-06
-0.000102036
-0.000142074
-0.000127244
-7.63533e-05
2.97577e-05
0.000162055
0.000280251
0.000371261
0.000446866
0.000517036
0.000579035
0.000625901
0.00065573
0.000669594
0.000669286
0.000657606
0.000637276
0.000610217
0.00057755
0.000540305
0.000500246
0.000459825
0.000421111
0.00038462
0.000349261
0.000313516
0.000276693
0.000239423
0.000203363
0.000170213
0.000140996
0.00011628
9.68872e-05
8.5044e-05
0.000102783
0.000111884
0.000129158
0.000152214
0.000180276
0.000212884
0.000249535
0.000289622
0.000332418
0.000377163
0.000423105
0.000469467
0.000515441
0.000560195
0.000602892
0.000642662
0.000678567
0.000709517
0.000734113
0.000750315
0.000754955
0.000743817
0.000713398
0.000659026
0.000576662
0.000484068
0.000414121
0.00032366
9.23245e-05
-0.000253946
-0.00052692
-0.000591945
-0.000541142
-0.000456294
-0.000196361
0.000122668
0.00032746
0.000401841
0.000466013
0.00055919
0.000645741
0.000706502
0.000744221
0.000761565
0.000760426
0.000744741
0.000718584
0.00068558
0.00064824
0.00060744
0.000563253
0.000516663
0.000470182
0.00042647
0.000386354
0.000348484
0.00031094
0.000272863
0.000234962
0.000199099
0.000166869
0.000139372
0.0001178
0.00010464
0.000123739
0.000133839
0.000152737
0.000177872
0.000208366
0.000243708
0.000283333
0.000326522
0.000372469
0.000420392
0.000469562
0.0005193
0.000568987
0.000618088
0.000666124
0.000712572
0.000756682
0.000797217
0.000832166
0.000858401
0.00087073
0.000861745
0.000828693
0.00076776
0.000582828
0.000190682
-0.000163863
-0.000224593
-2.68866e-05
0.000432569
0.0011176
0.00185434
0.00206018
0.00138736
0.000738165
0.000276566
2.57291e-05
-6.82918e-06
0.000248609
0.000572691
0.000734018
0.000796917
0.000838889
0.000858342
0.000855847
0.000836679
0.000804748
0.000763724
0.000717857
0.00067055
0.000622674
0.000573217
0.000522034
0.00047144
0.000424514
0.0003822
0.000342808
0.000304177
0.000265542
0.000228037
0.000193531
0.000163691
0.00014016
0.000125788
0.000145899
0.000156874
0.000177217
0.000204163
0.000236722
0.000274361
0.000316432
0.000362115
0.000410577
0.00046107
0.000512977
0.000565854
0.000619463
0.000673776
0.000728862
0.000784586
0.000840102
0.000893291
0.00094055
0.000977569
0.000999504
0.000987973
0.000823833
0.000509967
0.000573786
0.00213661
0.00652213
0.014421
0.0257354
0.0387561
0.0498788
0.0557534
0.0559038
0.0501696
0.0391356
0.0262209
0.0150012
0.00713107
0.00267146
0.000930486
0.000656525
0.000831856
0.000952567
0.000966177
0.000954784
0.0009294
0.000891885
0.000844006
0.000789167
0.000731943
0.000676358
0.000623196
0.000570273
0.000516372
0.000463727
0.000415645
0.000372766
0.000332939
0.000294068
0.000255972
0.000220155
0.000188618
0.000163507
0.000148141
0.000168987
0.000180606
0.000202114
0.000230487
0.000264629
0.00030397
0.000347761
0.000395137
0.000445291
0.000497582
0.000551627
0.000607391
0.000665235
0.000725866
0.000790024
0.000857823
0.000927798
0.000995933
0.0010559
0.00110221
0.0010543
0.000829131
0.00134988
0.00581738
0.0199534
0.0495606
0.0948764
0.14968
0.205316
0.253144
0.286713
0.302489
0.303142
0.286764
0.252939
0.205069
0.149575
0.095056
0.0500626
0.0206647
0.00650021
0.0017844
0.000976866
0.00104918
0.00106789
0.00102821
0.000979217
0.000921428
0.000858126
0.000792027
0.00072676
0.000666087
0.00061023
0.000555822
0.000501079
0.000448516
0.000401317
0.000359306
0.000320079
0.000282091
0.000245953
0.000213533
0.000187361
0.00017128
0.000192638
0.000204658
0.000226936
0.000256232
0.000291365
0.000331666
0.000376299
0.000424406
0.000475267
0.000528439
0.000583912
0.000642252
0.000704625
0.000772599
0.00084754
0.000929595
0.00101648
0.00110311
0.00116582
0.00104339
0.00121243
0.00575409
0.0259217
0.0765241
0.162941
0.273852
0.389421
0.493769
0.57788
0.638506
0.677256
0.697186
0.696352
0.676687
0.637884
0.577081
0.492791
0.388379
0.272986
0.162554
0.0767721
0.0265985
0.00641661
0.00154835
0.00110082
0.00113909
0.00107559
0.000997364
0.000919986
0.000844969
0.000772345
0.00070372
0.000641969
0.000586274
0.000532281
0.000478515
0.000428076
0.000383416
0.000343449
0.000305898
0.00027026
0.000237846
0.000211256
0.000194774
0.000216369
0.000228605
0.000251181
0.00028081
0.000316238
0.000356641
0.000401119
0.000448863
0.000499299
0.000552284
0.000608336
0.000668777
0.000735647
0.000811254
0.000897376
0.000994219
0.00110066
0.00118036
0.00106302
0.00248877
0.0167206
0.0694445
0.18103
0.340071
0.510226
0.657803
0.768412
0.843411
0.890474
0.918498
0.934297
0.941786
0.941615
0.93412
0.918287
0.890163
0.842907
0.767605
0.656626
0.50878
0.338757
0.180392
0.0696903
0.017405
0.00297325
0.00119027
0.00116518
0.00107525
0.000975054
0.000886388
0.000806924
0.000733676
0.000666559
0.000607576
0.000554472
0.000502505
0.000451531
0.000405
0.00036413
0.000327126
0.000292578
0.000261008
0.000234734
0.000218255
0.000239669
0.000251962
0.000274362
0.000303705
0.000338644
0.000378199
0.000421436
0.000467617
0.000516364
0.000567943
0.000623532
0.000685244
0.000755767
0.000837728
0.000933193
0.00104419
0.00112457
0.00103177
0.00465043
0.0345047
0.13248
0.312813
0.529772
0.719687
0.850898
0.926495
0.963293
0.975667
0.973396
0.963568
0.952487
0.946074
0.946215
0.952561
0.96357
0.973352
0.975607
0.963221
0.926322
0.85038
0.718564
0.528168
0.311445
0.132126
0.0350362
0.00521058
0.00121213
0.00111757
0.00102152
0.000915371
0.000826718
0.000750548
0.000681911
0.000620447
0.000567196
0.000518238
0.000469678
0.000423282
0.000382018
0.000345668
0.000312603
0.000282555
0.000257344
0.000241414
0.000262209
0.000274299
0.000296063
0.000324498
0.000358124
0.000395845
0.000436711
0.000480056
0.000525748
0.000574553
0.000628348
0.000689862
0.000761922
0.000846844
0.000947884
0.00101987
0.000868687
0.00650883
0.0535394
0.197805
0.43671
0.683453
0.857396
0.946809
0.977744
0.971806
0.938013
0.883948
0.821955
0.764937
0.723001
0.702415
0.703256
0.723505
0.765369
0.822326
0.884183
0.938081
0.971795
0.977804
0.946879
0.857002
0.682166
0.435032
0.196965
0.0538828
0.00709541
0.00107104
0.0010166
0.000928571
0.00083104
0.000751718
0.000684223
0.000623927
0.000571153
0.000525158
0.000481005
0.000437248
0.00039689
0.000361549
0.000330236
0.000302188
0.000278664
0.000263836
0.000283796
0.000295334
0.000316003
0.000342908
0.00037442
0.000409361
0.000446751
0.000485988
0.000527208
0.000571685
0.000621874
0.000680823
0.000751116
0.000834272
0.000894393
0.000668201
0.00663003
0.0648869
0.245754
0.52757
0.783587
0.929107
0.979579
0.973205
0.919065
0.818618
0.691367
0.564966
0.458969
0.381745
0.333085
0.308822
0.30817
0.333118
0.382181
0.459702
0.56588
0.692249
0.819198
0.919234
0.973222
0.979805
0.929264
0.782812
0.525891
0.244646
0.0651268
0.0072175
0.000856676
0.000890609
0.000818128
0.00073762
0.000671843
0.000615963
0.000566605
0.000524024
0.000485132
0.000446156
0.000408472
0.000374871
0.000345572
0.000319828
0.000298405
0.000285042
0.000304155
0.00031488
0.000334039
0.000358828
0.000387518
0.000418855
0.00045179
0.000485765
0.000521137
0.00055948
0.000603449
0.000656341
0.000721896
0.000779659
0.000475116
0.00478131
0.0630217
0.262316
0.574917
0.837114
0.960858
0.985428
0.944457
0.829392
0.652187
0.462699
0.306329
0.197839
0.130659
0.0921627
0.0713281
0.061287
0.0611506
0.0711448
0.0920612
0.130753
0.198275
0.307206
0.463936
0.653387
0.830017
0.944504
0.985571
0.96127
0.83673
0.573317
0.261158
0.0632984
0.0053469
0.000618911
0.0007722
0.000708543
0.000645262
0.000595655
0.000553264
0.00051599
0.000482818
0.00044992
0.000416609
0.000385746
0.000358804
0.00033556
0.000316486
0.000304756
0.000322946
0.000332769
0.000350116
0.000372326
0.000397658
0.000424768
0.000452529
0.000480406
0.000508788
0.000538968
0.000572912
0.000614208
0.000660759
0.000458481
0.00204071
0.0483573
0.242616
0.575462
0.85509
0.973306
0.983319
0.91043
0.733588
0.493059
0.276805
0.134862
0.0603834
0.0265491
0.0125556
0.00684495
0.00446563
0.00364985
0.00345692
0.00420106
0.00650404
0.0121361
0.0261072
0.0600941
0.135042
0.277724
0.494495
0.734675
0.910612
0.983344
0.973801
0.854869
0.573892
0.241615
0.0487899
0.00254514
0.000542578
0.000652259
0.00060397
0.000564102
0.000531756
0.000502347
0.000475556
0.000449205
0.000421442
0.000394305
0.000370138
0.000349524
0.000332936
0.000322949
0.000340001
0.000348885
0.000364241
0.000383603
0.000405266
0.000427815
0.000450107
0.000471644
0.000492553
0.000513015
0.000532786
0.000549351
0.000432703
2.97705e-05
0.027028
0.19091
0.528578
0.841565
0.975532
0.982875
0.888988
0.663538
0.379001
0.16213
0.0532726
0.0146239
0.00393254
0.00121347
0.000556506
0.000319012
0.000272631
0.00032221
0.000264221
0.000168311
0.000174646
0.000344107
0.00087955
0.00343133
0.0139969
0.0528174
0.162444
0.380316
0.664879
0.889254
0.982821
0.97605
0.84125
0.526988
0.190275
0.0276368
0.000406057
0.000463587
0.000542535
0.000524982
0.00050533
0.000485239
0.0004653
0.000445298
0.000423487
0.000400777
0.00037978
0.00036187
0.000347791
0.000339601
0.000355338
0.000363219
0.000376508
0.000392946
0.000410868
0.000428864
0.000445924
0.000461672
0.000475924
0.000487701
0.0004945
0.00043728
-0.000271921
0.0087652
0.120948
0.43491
0.791541
0.967909
0.987489
0.891515
0.638883
0.321723
0.105996
0.0225598
0.00355221
0.000818525
0.000695526
0.000890281
0.00094905
0.000866312
0.000781915
0.000746051
0.000723549
0.000733803
0.000808687
0.000889271
0.000817469
0.00056252
0.00051932
0.00297328
0.0218344
0.105861
0.322875
0.640286
0.891708
0.987422
0.968411
0.790884
0.433406
0.120855
0.00942429
-7.12526e-05
0.000440443
0.000489455
0.000480701
0.000468189
0.000454266
0.000439781
0.000423565
0.000405531
0.000387958
0.000372766
0.000361106
0.000354634
0.000368993
0.000375833
0.000387083
0.000400682
0.00041501
0.000428783
0.000441285
0.000452424
0.000462056
0.000469459
0.000466046
0.000197741
0.000228796
0.0550541
0.303991
0.691496
0.940831
0.99365
0.917901
0.666316
0.320289
0.0881403
0.0122584
0.0012119
0.000760524
0.000941387
0.000976712
0.000975094
0.000960833
0.000926793
0.000888071
0.000863095
0.000850145
0.000854777
0.000879933
0.000906088
0.000918233
0.000923728
0.000884305
0.000621164
0.000785788
0.0114781
0.0878331
0.321444
0.667614
0.917865
0.993697
0.941168
0.690373
0.302909
0.0554942
0.000730411
0.000258042
0.000464582
0.000464742
0.000454742
0.000444429
0.000434094
0.000422603
0.000409036
0.000394919
0.000382387
0.00037297
0.000368029
0.000380968
0.000386798
0.000396145
0.000407133
0.000418227
0.000428359
0.000437141
0.000444902
0.000452227
0.000458709
0.000377525
-0.000511162
0.013076
0.16429
0.531496
0.872548
0.99213
0.956122
0.741312
0.375881
0.10048
0.0106403
0.000715759
0.000855462
0.000978651
0.000993853
0.00100118
0.000998714
0.000987687
0.000970651
0.000951509
0.000936872
0.000929008
0.000929932
0.00093852
0.000947259
0.000951562
0.000950546
0.000945948
0.000938331
0.000782295
0.000374909
0.00985172
0.100283
0.377207
0.742258
0.955841
0.9924
0.872392
0.530126
0.163994
0.013736
-0.000282829
0.000383883
0.000457618
0.000446343
0.000436895
0.000429284
0.000421489
0.000411821
0.00040093
0.000390884
0.000383467
0.000379827
0.000391252
0.000396165
0.000403832
0.000412588
0.00042106
0.000428356
0.000434203
0.000439263
0.000446802
0.000460932
0.000211031
-0.000662391
0.0569021
0.328119
0.733135
0.964228
0.98799
0.843773
0.493017
0.151872
0.0164928
0.000561011
0.000865927
0.000976514
0.00099146
0.00100217
0.00100641
0.00100473
0.000999469
0.000992689
0.000985375
0.000979151
0.000975104
0.000974262
0.000976578
0.000979818
0.000981166
0.00097763
0.000969243
0.000959731
0.00095172
0.000814958
0.000202582
0.0157145
0.15211
0.494452
0.844086
0.987743
0.964525
0.732272
0.327136
0.0573308
-0.000197784
0.000252614
0.000463306
0.000443141
0.000431941
0.000426165
0.00042111
0.000414476
0.000406269
0.000398364
0.000392626
0.000390031
0.000399784
0.000403912
0.000410183
0.000417258
0.000424045
0.000429739
0.000433616
0.000434963
0.000435645
0.000404844
-0.000212983
0.00593016
0.140173
0.509723
0.870867
0.996231
0.938096
0.662318
0.265731
0.0407357
0.000749266
0.000765999
0.000970018
0.000982482
0.000993048
0.00100036
0.00100416
0.0010052
0.00100477
0.00100407
0.00100364
0.00100363
0.00100371
0.0010035
0.0010029
0.00100216
0.00100115
0.000997671
0.000989436
0.000977977
0.000967778
0.000958831
0.000702262
0.000255367
0.0401651
0.266618
0.663403
0.937827
0.996329
0.870662
0.508557
0.140099
0.00651897
-7.65672e-05
0.000409473
0.000434898
0.000429049
0.000425898
0.000422497
0.000417583
0.000411145
0.000404836
0.000400401
0.0003986
0.000406441
0.000409896
0.000415063
0.000421116
0.000427485
0.000433781
0.000439099
0.000440474
0.000429637
0.000223438
-0.00113266
0.0282681
0.252849
0.66971
0.948636
0.992616
0.839834
0.461262
0.117135
0.00543304
0.000439253
0.000945239
0.000978407
0.000987589
0.00099776
0.00100711
0.00101457
0.00101922
0.00102129
0.00102177
0.00102184
0.00102239
0.00102352
0.00102441
0.0010237
0.00102067
0.00101606
0.00101071
0.00100352
0.000992904
0.000981097
0.000973042
0.000938841
0.000283219
0.0047849
0.117202
0.462499
0.840049
0.992387
0.948743
0.668823
0.252318
0.0287692
-0.000859677
0.000231161
0.000431795
0.00043625
0.00043203
0.000426881
0.000421433
0.000415493
0.000410121
0.000406626
0.000405441
0.000411141
0.0004139
0.000418116
0.000423589
0.000430587
0.000440104
0.000453579
0.000472545
0.000492848
0.000137164
-0.00156725
0.0684125
0.375112
0.78876
0.986738
0.962166
0.709447
0.292406
0.0414447
-0.000164032
0.000780421
0.000980026
0.000987793
0.000998178
0.00101148
0.00102608
0.00103912
0.00104801
0.00105198
0.00105183
0.0010491
0.00104556
0.00104269
0.00104106
0.00103977
0.00103669
0.00103035
0.00102165
0.00101262
0.00100311
0.000992336
0.000983743
0.000978328
0.000755375
-0.000563778
0.0410621
0.293254
0.710145
0.961868
0.986812
0.788289
0.374347
0.0686976
-0.0011855
0.000156234
0.000497078
0.000469908
0.000447414
0.000433864
0.000425213
0.000418691
0.000413808
0.00041104
0.000410382
0.000413904
0.0004158
0.000418908
0.000423544
0.000430778
0.000443318
0.00046648
0.000512173
0.000591283
0.000171489
0.000410541
0.120265
0.489033
0.867822
1.00065
0.911084
0.574596
0.17609
0.0102625
0.000311466
0.000975085
0.001005
0.00100118
0.00101096
0.00102729
0.00104655
0.0010645
0.00107752
0.00108409
0.00108463
0.00108048
0.00107338
0.00106532
0.00105817
0.00105298
0.00104879
0.00104275
0.00103278
0.00102045
0.00100912
0.000999906
0.000994949
0.00100301
0.000973703
0.000137353
0.00979209
0.176455
0.575483
0.910938
1.00059
0.867662
0.488261
0.120323
0.000815095
0.000217288
0.000596625
0.000511154
0.000461594
0.000438068
0.000426308
0.000419534
0.000415385
0.000413439
0.000413286
0.000414893
0.000415756
0.000417356
0.000420183
0.000425502
0.000436397
0.000459066
0.00050782
0.000563666
-9.46793e-05
0.00654741
0.175339
0.582189
0.916278
0.999944
0.850598
0.458058
0.105547
0.000819572
0.000723781
0.00105121
0.00101066
0.00100443
0.0010168
0.00103627
0.00105845
0.00107941
0.00109553
0.00110496
0.00110779
0.00110502
0.00109786
0.00108775
0.00107656
0.00106635
0.00105841
0.00105144
0.0010419
0.00102788
0.00101245
0.00100053
0.000995631
0.00100796
0.00105095
0.000669247
0.000437981
0.105591
0.458845
0.85064
0.999794
0.916259
0.581578
0.175236
0.00688395
-1.79248e-05
0.000568666
0.000507988
0.000455549
0.000432271
0.000422007
0.000417088
0.000414645
0.000413924
0.000414323
0.000414538
0.000414348
0.000414132
0.000414244
0.000415484
0.000419787
0.000430955
0.000456931
0.000407387
-0.000607219
0.0161907
0.224521
0.648915
0.944694
0.991144
0.792956
0.372629
0.0664786
-0.000856622
0.000639749
0.000976041
0.000975744
0.000989397
0.00101159
0.00103562
0.0010595
0.00108169
0.00109967
0.00111155
0.00111708
0.00111714
0.00111261
0.00110413
0.00109273
0.00108004
0.00106812
0.00105802
0.00104771
0.00103325
0.00101393
0.00099453
0.000979704
0.000972723
0.000975146
0.000629081
-0.00110427
0.0663903
0.373167
0.793111
0.991009
0.944697
0.648518
0.224365
0.0164193
-0.000519942
0.00041089
0.00045727
0.000428471
0.000416694
0.000412883
0.000411984
0.000412172
0.000413041
0.00041405
0.000413581
0.00041251
0.000410605
0.000408003
0.000404878
0.000401928
0.000401166
0.000407138
0.000275201
-0.000924733
0.0256901
0.260408
0.690579
0.960381
0.980206
0.748833
0.319572
0.0465629
-0.000671866
0.000631959
0.000910075
0.000937891
0.000968656
0.00100059
0.00102906
0.0010536
0.00107548
0.00109412
0.0011079
0.00111604
0.00111904
0.00111783
0.00111278
0.001104
0.0010921
0.00107854
0.00106513
0.00105216
0.00103658
0.00101474
0.000987921
0.000960902
0.00093538
0.000909304
0.000631106
-0.000803351
0.0464782
0.319866
0.748975
0.980124
0.960375
0.690365
0.260285
0.0258167
-0.00085785
0.000277065
0.000407075
0.000399448
0.000399799
0.000403092
0.000406486
0.000409316
0.000411689
0.000413247
0.000412821
0.000411213
0.000408252
0.000403993
0.000398194
0.000391058
0.000384677
0.00038524
0.00022929
-0.000970372
0.0314717
0.279115
0.710411
0.967391
0.973566
0.725838
0.294343
0.0376275
-0.000616474
0.000639243
0.00087902
0.000916159
0.00095395
0.000990677
0.00102184
0.00104613
0.00106636
0.00108435
0.00109933
0.00111
0.00111598
0.00111787
0.00111626
0.00111103
0.00110183
0.00108903
0.00107396
0.00105795
0.00104012
0.00101675
0.000985871
0.000950819
0.000915068
0.000878762
0.000639748
-0.000656246
0.0375989
0.294437
0.72589
0.973537
0.967386
0.710343
0.279069
0.0315112
-0.000946054
0.000229451
0.000384689
0.000383586
0.00038984
0.000397146
0.000403124
0.000407567
0.000410807
0.000412659
0.000412756
0.000411041
0.000407981
0.000403712
0.000397866
0.000390643
0.00038442
0.000385509
0.00023022
-0.000945359
0.0315118
0.27907
0.710343
0.967386
0.973537
0.72589
0.294437
0.0375992
-0.000655965
0.000640037
0.000879062
0.000915378
0.000951137
0.000986191
0.00101706
0.00104042
0.00105822
0.00107419
0.00108922
0.00110196
0.00111111
0.00111629
0.00111783
0.00111589
0.00110985
0.00109914
0.00108412
0.0010661
0.00104584
0.00102154
0.000990377
0.000953657
0.000915878
0.000878753
0.000638991
-0.000616716
0.0376273
0.294343
0.725838
0.973566
0.967391
0.71041
0.279115
0.0314711
-0.000971033
0.000228553
0.000384451
0.000383873
0.000390286
0.000397504
0.000403435
0.000407867
0.000411008
0.000412756
0.000413373
0.000411958
0.00040976
0.000407103
0.000403841
0.00040063
0.00040031
0.000407922
0.000277863
-0.000857125
0.0258173
0.260286
0.690365
0.960375
0.980124
0.748975
0.319866
0.0464785
-0.000803032
0.000631429
0.000909634
0.000935716
0.000961241
0.000988256
0.00101507
0.00103688
0.00105243
0.00106536
0.00107872
0.00109223
0.00110407
0.00111279
0.00111778
0.00111894
0.00111589
0.0011077
0.00109389
0.00107522
0.00105332
0.00102878
0.00100031
0.000968389
0.00093764
0.000909842
0.000631742
-0.000672071
0.0465627
0.319572
0.748833
0.980206
0.960381
0.690579
0.260407
0.0256896
-0.00092536
0.000274497
0.000406382
0.000400395
0.000401186
0.000404216
0.000407471
0.000410244
0.00041233
0.000413542
0.000414192
0.000413346
0.000412648
0.00041263
0.000413659
0.00041755
0.000429356
0.00045814
0.000411711
-0.000519191
0.01642
0.224366
0.648519
0.944698
0.99101
0.793111
0.373168
0.0663906
-0.00110392
0.000629434
0.000975502
0.00097308
0.000980058
0.000994875
0.00101426
0.00103355
0.00104797
0.00105824
0.00106829
0.00108016
0.0010928
0.00110414
0.00111255
0.00111704
0.00111693
0.00111135
0.00109944
0.00108144
0.00105924
0.00103535
0.00101134
0.000989157
0.000975523
0.00097584
0.000639566
-0.000856791
0.0664784
0.372629
0.792956
0.991144
0.944694
0.648915
0.22452
0.0161902
-0.000607814
0.000406716
0.000456208
0.000430215
0.000419073
0.000414846
0.000413732
0.000413789
0.000414187
0.000414525
0.000414458
0.000414261
0.000415156
0.000417762
0.000422806
0.000433146
0.000456451
0.000508874
0.000569504
-1.71545e-05
0.00688465
0.175237
0.581579
0.91626
0.999795
0.850641
0.458846
0.105591
0.00043836
0.000669624
0.00105133
0.00100833
0.000995995
0.00100088
0.00101277
0.00102818
0.00104216
0.00105166
0.00105858
0.00106646
0.00107661
0.00108774
0.0010978
0.00110491
0.00110763
0.00110477
0.00109531
0.00107917
0.00105821
0.00103603
0.00101657
0.00100422
0.00101047
0.00105104
0.000723627
0.000819432
0.105547
0.458058
0.850597
0.999944
0.916278
0.582189
0.175339
0.00654693
-9.52437e-05
0.000563026
0.000507127
0.000458353
0.000435706
0.000424881
0.000419683
0.000417021
0.000415608
0.00041491
0.000413401
0.0004138
0.000415931
0.000420238
0.000427129
0.000438959
0.000462509
0.000512052
0.000597475
0.000218071
0.000815803
0.120323
0.488262
0.867662
1.00059
0.910938
0.575484
0.176455
0.00979248
0.000137744
0.000974088
0.00100339
0.000995314
0.00100025
0.00100944
0.00102074
0.00103303
0.00104295
0.00104895
0.00105307
0.00105821
0.00106531
0.00107331
0.00108036
0.00108447
0.0010839
0.00107731
0.00106428
0.00104632
0.00102707
0.00101075
0.00100099
0.00100484
0.000974937
0.000311336
0.0102624
0.17609
0.574596
0.911084
1.00065
0.867822
0.489032
0.120265
0.000410089
0.000170952
0.000590672
0.000511508
0.000465792
0.000442646
0.000430169
0.000423048
0.000418571
0.000415652
0.000413956
0.00041049
0.000411419
0.000414389
0.000419425
0.000426056
0.00043477
0.000448339
0.000470812
0.000497934
0.000157023
-0.00118478
0.0686983
0.374347
0.788289
0.986813
0.961868
0.710145
0.293255
0.0410625
-0.000563383
0.000755761
0.000978703
0.000984102
0.000992675
0.00100342
0.00101289
0.00102189
0.00103054
0.00103683
0.00103985
0.00104109
0.00104267
0.00104549
0.00104898
0.00105168
0.00105179
0.00104781
0.00103891
0.00102587
0.00101127
0.000997988
0.000987622
0.000979875
0.000780291
-0.000164146
0.0414446
0.292406
0.709447
0.962165
0.986737
0.78876
0.375112
0.0684121
-0.00156768
0.000136652
0.000492263
0.000471905
0.000452913
0.000439449
0.000429987
0.000423092
0.000417767
0.000413739
0.000411216
0.000405579
0.000407036
0.000410737
0.000416259
0.0004223
0.000427802
0.000432962
0.000437158
0.000432651
0.000231946
-0.000858967
0.0287698
0.252318
0.668824
0.948743
0.992388
0.840049
0.4625
0.117202
0.00478529
0.000283595
0.000939203
0.000973386
0.000981419
0.000993197
0.00100378
0.00101093
0.00101623
0.00102079
0.00102377
0.00102442
0.00102349
0.00102231
0.00102171
0.00102161
0.00102111
0.00101903
0.00101436
0.00100691
0.000997568
0.000987411
0.000978247
0.000945099
0.000439131
0.00543294
0.117135
0.461262
0.839833
0.992616
0.948636
0.66971
0.252849
0.0282677
-0.00113307
0.000222951
0.000429078
0.00043986
0.000438455
0.000433142
0.000426894
0.000420618
0.0004147
0.000409711
0.000406511
0.000398793
0.000400861
0.000405496
0.000411946
0.000418475
0.000423433
0.000426836
0.000429955
0.000435746
0.000410248
-7.58704e-05
0.00651959
0.1401
0.508558
0.870662
0.99633
0.937828
0.663403
0.266618
0.0401655
0.000255723
0.000702602
0.000959152
0.000968075
0.000978245
0.000989669
0.000997863
0.00100129
0.00100226
0.00100294
0.00100349
0.00100366
0.00100354
0.00100351
0.00100391
0.00100459
0.001005
0.00100396
0.00100016
0.000992861
0.000982309
0.000969861
0.000765861
0.000749145
0.0407356
0.265731
0.662318
0.938096
0.996231
0.870867
0.509723
0.140173
0.00592984
-0.000213372
0.000404382
0.000435113
0.000434376
0.000432996
0.000429119
0.000423466
0.000416762
0.000409811
0.000403706
0.000399831
0.000390272
0.000393151
0.00039908
0.000407111
0.000415394
0.00042206
0.000427105
0.000432839
0.000443975
0.000464063
0.000253289
-0.000197185
0.0573313
0.327137
0.732273
0.964525
0.987743
0.844087
0.494452
0.152111
0.0157148
0.000202891
0.000815247
0.000951984
0.000959966
0.000969443
0.00097779
0.000981282
0.000979888
0.000976601
0.000974238
0.000975036
0.000979044
0.000985235
0.000992524
0.000999284
0.00100453
0.00100621
0.00100197
0.000991271
0.000976337
0.000865766
0.000560867
0.0164927
0.151872
0.493016
0.843773
0.98799
0.964228
0.733135
0.328119
0.0569019
-0.000662691