/*--------------------------------*- C++ -*----------------------------------*\
| =========                 |                                                 |
| \\      /  F ield         | OpenFOAM: The Open Source CFD Toolbox           |
|  \\    /   O peration     | Version:  v1806                                 |
|   \\  /    A nd           | Web:      www.OpenFOAM.com                      |
|    \\/     M anipulation  |                                                 |
\*---------------------------------------------------------------------------*/
FoamFile
{
    version     2.0;
    format      ascii;
    class       surfaceScalarField;
    location    "0.001";
    object      phi;
}
// * * * * * * * * * * * * * * * * * * * * * * * * * * * * * * * * * * * * * //

dimensions      [0 3 -1 0 0 0 0];
oriented        oriented;


internalField   nonuniform List<scalar> 
8064
(
1.59398e-11
2.3005e-05
-2.38613e-11
6.87935e-05
-4.26431e-11
0.000113919
-9.71079e-11
0.000157948
-1.58065e-10
0.000200456
-2.23161e-10
0.000241033
-2.84037e-10
0.000279289
-3.55254e-10
0.000314855
-4.37e-10
0.000347389
-5.03155e-10
0.000376578
-5.37821e-10
0.00040214
-5.48576e-10
0.000423829
-5.36277e-10
0.000441436
-4.93569e-10
0.000454792
-4.3107e-10
0.000463768
-3.68884e-10
0.000468278
-3.14684e-10
0.000468278
-2.77993e-10
0.000463768
-2.74629e-10
0.000454792
-2.96549e-10
0.000441436
-3.20557e-10
0.000423829
-3.4803e-10
0.00040214
-3.90404e-10
0.000376578
-4.36481e-10
0.000347389
-4.69289e-10
0.000314855
-4.86276e-10
0.000279289
-4.87489e-10
0.000241033
-4.65412e-10
0.000200456
-4.09646e-10
0.000157948
-3.14048e-10
0.000113919
-1.82299e-10
6.87933e-05
-2.98235e-11
2.30049e-05
1.22414e-10
-2.30052e-05
2.57648e-10
-6.87936e-05
3.67278e-10
-0.00011392
4.47738e-10
-0.000157948
4.97731e-10
-0.000200456
5.20538e-10
-0.000241033
5.24178e-10
-0.000279289
5.17004e-10
-0.000314855
5.00765e-10
-0.000347389
4.67434e-10
-0.000376578
4.17166e-10
-0.00040214
3.69956e-10
-0.000423829
3.36143e-10
-0.000441436
3.05453e-10
-0.000454792
2.83913e-10
-0.000463768
2.95559e-10
-0.000468278
3.4133e-10
-0.000468278
3.98172e-10
-0.000463768
4.49401e-10
-0.000454792
4.87263e-10
-0.000441436
5.01456e-10
-0.000423829
4.82029e-10
-0.00040214
4.29178e-10
-0.000376578
3.56876e-10
-0.000347389
2.79768e-10
-0.000314855
2.12485e-10
-0.000279289
1.51863e-10
-0.000241033
9.59471e-11
-0.000200456
6.52031e-11
-0.000157948
3.48201e-11
-0.000113919
1.81331e-11
-6.87935e-05
-2.3005e-05
3.19727e-11
2.3005e-05
3.61101e-11
6.87935e-05
1.49217e-11
0.000113919
1.9494e-12
0.000157948
-2.39899e-11
0.000200456
-5.80073e-11
0.000241033
-9.54347e-11
0.000279289
-1.45414e-10
0.000314855
-2.03036e-10
0.000347389
-2.72047e-10
0.000376578
-3.39262e-10
0.00040214
-4.00165e-10
0.000423829
-4.54914e-10
0.000441436
-4.95065e-10
0.000454792
-5.17141e-10
0.000463768
-5.28503e-10
0.000468278
-5.33002e-10
0.000468278
-5.32239e-10
0.000463768
-5.36848e-10
0.000454792
-5.54002e-10
0.000441436
-5.76754e-10
0.000423829
-6.01959e-10
0.00040214
-6.36439e-10
0.000376578
-6.78857e-10
0.000347389
-7.17857e-10
0.000314855
-7.44412e-10
0.000279289
-7.50936e-10
0.000241033
-7.25379e-10
0.000200456
-6.53552e-10
0.000157948
-5.25876e-10
0.000113919
-3.45119e-10
6.87932e-05
-1.28555e-10
2.30046e-05
9.80025e-11
-2.30054e-05
3.07408e-10
-6.87938e-05
4.83051e-10
-0.00011392
6.24627e-10
-0.000157948
7.36341e-10
-0.000200456
8.22338e-10
-0.000241033
8.89693e-10
-0.000279289
9.41862e-10
-0.000314855
9.7537e-10
-0.000347389
9.81593e-10
-0.000376578
9.51269e-10
-0.000402139
8.8507e-10
-0.000423828
7.89866e-10
-0.000441436
6.66049e-10
-0.000454792
5.19376e-10
-0.000463768
3.76111e-10
-0.000468278
2.65927e-10
-0.000468278
1.99643e-10
-0.000463768
1.70962e-10
-0.000454792
1.66377e-10
-0.000441436
1.70208e-10
-0.000423829
1.69482e-10
-0.00040214
1.58819e-10
-0.000376578
1.3634e-10
-0.000347389
9.90888e-11
-0.000314855
6.52592e-11
-0.000279289
3.43698e-11
-0.000241033
5.57325e-12
-0.000200456
-1.19492e-12
-0.000157948
-1.20496e-12
-0.000113919
-1.58449e-11
-6.87935e-05
-2.3005e-05
2.372e-11
2.3005e-05
5.02932e-11
6.87935e-05
5.71042e-11
0.000113919
5.2447e-11
0.000157948
4.58321e-11
0.000200456
3.26331e-11
0.000241033
6.99847e-12
0.000279289
-2.19283e-11
0.000314855
-6.53525e-11
0.000347389
-1.3174e-10
0.000376578
-2.08193e-10
0.00040214
-2.89161e-10
0.000423829
-3.74098e-10
0.000441436
-4.5329e-10
0.000454792
-5.16689e-10
0.000463768
-5.65709e-10
0.000468278
-6.05665e-10
0.000468278
-6.38248e-10
0.000463768
-6.68716e-10
0.000454792
-7.06543e-10
0.000441436
-7.54757e-10
0.000423829
-8.10722e-10
0.00040214
-8.72965e-10
0.000376578
-9.37089e-10
0.000347389
-9.93865e-10
0.000314855
-1.03494e-09
0.000279289
-1.05054e-09
0.000241033
-1.02232e-09
0.000200456
-9.26382e-10
0.000157948
-7.46596e-10
0.000113919
-4.89433e-10
6.87929e-05
-1.84168e-10
2.30043e-05
1.30966e-10
-2.30057e-05
4.16025e-10
-6.87941e-05
6.42803e-10
-0.00011392
8.11352e-10
-0.000157949
9.37683e-10
-0.000200456
1.03694e-09
-0.000241033
1.12079e-09
-0.000279289
1.1926e-09
-0.000314855
1.2483e-09
-0.000347389
1.28202e-09
-0.000376578
1.28415e-09
-0.000402139
1.24246e-09
-0.000423828
1.14809e-09
-0.000441436
9.95315e-10
-0.000454792
7.85195e-10
-0.000463768
5.38142e-10
-0.000468277
2.93814e-10
-0.000468278
9.40709e-11
-0.000463768
-3.31566e-11
-0.000454792
-8.29065e-11
-0.000441436
-7.51458e-11
-0.000423829
-4.34432e-11
-0.00040214
-1.47404e-11
-0.000376578
-3.3556e-12
-0.000347389
-9.6112e-12
-0.000314855
-1.57829e-11
-0.000279289
-2.40409e-11
-0.000241033
-3.12591e-11
-0.000200456
-3.65877e-11
-0.000157948
-3.77563e-11
-0.000113919
-2.59234e-11
-6.87935e-05
-2.30051e-05
4.29585e-11
2.30049e-05
6.97483e-11
6.87935e-05
7.18257e-11
0.000113919
6.77381e-11
0.000157948
5.70408e-11
0.000200456
4.65076e-11
0.000241033
2.68891e-11
0.000279289
6.37973e-12
0.000314856
-3.04848e-11
0.00034739
-8.26461e-11
0.000376578
-1.41627e-10
0.00040214
-2.06621e-10
0.000423829
-2.78424e-10
0.000441436
-3.52437e-10
0.000454792
-4.23204e-10
0.000463768
-4.9136e-10
0.000468278
-5.61576e-10
0.000468278
-6.36524e-10
0.000463768
-7.17892e-10
0.000454792
-8.086e-10
0.000441436
-9.07878e-10
0.000423829
-1.00882e-09
0.00040214
-1.10248e-09
0.000376578
-1.17959e-09
0.00034739
-1.23269e-09
0.000314855
-1.26127e-09
0.000279289
-1.26492e-09
0.000241033
-1.22402e-09
0.000200456
-1.09688e-09
0.000157948
-8.49797e-10
0.000113919
-4.92571e-10
6.87926e-05
-7.67086e-11
2.30039e-05
3.34157e-10
-2.30061e-05
6.77253e-10
-6.87944e-05
9.08684e-10
-0.00011392
1.03259e-09
-0.000157949
1.08937e-09
-0.000200456
1.11887e-09
-0.000241033
1.14086e-09
-0.000279289
1.15595e-09
-0.000314855
1.1605e-09
-0.000347389
1.15803e-09
-0.000376578
1.15446e-09
-0.000402139
1.14919e-09
-0.000423828
1.13181e-09
-0.000441436
1.08077e-09
-0.000454792
9.68388e-10
-0.000463768
7.79649e-10
-0.000468277
5.30802e-10
-0.000468277
2.68039e-10
-0.000463768
4.74892e-11
-0.000454792
-9.06081e-11
-0.000441436
-1.40352e-10
-0.000423829
-1.28238e-10
-0.00040214
-9.26434e-11
-0.000376578
-6.52447e-11
-0.000347389
-5.05496e-11
-0.000314855
-4.37468e-11
-0.000279289
-4.51129e-11
-0.000241033
-5.1795e-11
-0.000200456
-6.40276e-11
-0.000157948
-5.37337e-11
-0.000113919
-3.56235e-11
-6.87935e-05
-2.30051e-05
5.16749e-11
2.30048e-05
8.11863e-11
6.87935e-05
8.97151e-11
0.000113919
8.38078e-11
0.000157948
7.79611e-11
0.000200456
7.21239e-11
0.000241033
6.19e-11
0.000279289
4.51977e-11
0.000314856
1.38213e-11
0.00034739
-2.38236e-11
0.000376578
-6.64799e-11
0.00040214
-1.19062e-10
0.000423829
-1.82953e-10
0.000441436
-2.55543e-10
0.000454792
-3.35898e-10
0.000463768
-4.2764e-10
0.000468278
-5.36207e-10
0.000468278
-6.63246e-10
0.000463768
-8.04689e-10
0.000454792
-9.53366e-10
0.000441436
-1.09958e-09
0.000423829
-1.22977e-09
0.00040214
-1.32774e-09
0.000376578
-1.37833e-09
0.00034739
-1.37692e-09
0.000314855
-1.34542e-09
0.000279289
-1.32192e-09
0.000241033
-1.29765e-09
0.000200456
-1.18367e-09
0.000157948
-8.90283e-10
0.000113918
-4.22735e-10
6.87921e-05
1.31299e-10
2.30034e-05
6.67662e-10
-2.30066e-05
1.08252e-09
-6.87948e-05
1.29621e-09
-0.00011392
1.31925e-09
-0.000157949
1.25291e-09
-0.000200456
1.19325e-09
-0.000241033
1.15763e-09
-0.000279289
1.11385e-09
-0.000314855
1.0415e-09
-0.000347389
9.48871e-10
-0.000376578
8.58711e-10
-0.000402139
7.96096e-10
-0.000423828
7.7983e-10
-0.000441436
8.08911e-10
-0.000454792
8.50786e-10
-0.000463768
8.48186e-10
-0.000468277
7.50429e-10
-0.000468277
5.4975e-10
-0.000463767
2.93155e-10
-0.000454791
5.70527e-11
-0.000441435
-9.83871e-11
-0.000423828
-1.59513e-10
-0.000402139
-1.55294e-10
-0.000376578
-1.29773e-10
-0.000347389
-1.05825e-10
-0.000314855
-9.77543e-11
-0.000279289
-8.70619e-11
-0.000241033
-8.72204e-11
-0.000200456
-9.28958e-11
-0.000157948
-7.18527e-11
-0.000113919
-5.8763e-11
-6.87935e-05
-2.30052e-05
5.86848e-11
2.30048e-05
9.20293e-11
6.87934e-05
1.02714e-10
0.000113919
1.04316e-10
0.000157948
1.07555e-10
0.000200456
1.04149e-10
0.000241033
1.00042e-10
0.000279289
8.67288e-11
0.000314856
6.54339e-11
0.00034739
4.0096e-11
0.000376578
5.99465e-12
0.00040214
-4.08415e-11
0.000423829
-1.01227e-10
0.000441436
-1.77462e-10
0.000454792
-2.75461e-10
0.000463768
-4.00883e-10
0.000468278
-5.54959e-10
0.000468278
-7.32514e-10
0.000463768
-9.2168e-10
0.000454792
-1.10603e-09
0.000441436
-1.26717e-09
0.000423829
-1.38583e-09
0.00040214
-1.44258e-09
0.000376578
-1.42032e-09
0.00034739
-1.31527e-09
0.000314855
-1.18971e-09
0.000279289
-1.18907e-09
0.000241033
-1.34592e-09
0.000200456
-1.423e-09
0.000157948
-1.16516e-09
0.000113918
-5.75598e-10
6.87915e-05
1.75435e-10
2.30026e-05
9.26497e-10
-2.30074e-05
1.50703e-09
-6.87954e-05
1.73511e-09
-0.000113921
1.6026e-09
-0.000157949
1.36195e-09
-0.000200456
1.25465e-09
-0.000241033
1.26216e-09
-0.000279289
1.25551e-09
-0.000314855
1.18086e-09
-0.000347389
1.04335e-09
-0.000376578
8.58282e-10
-0.000402139
6.49791e-10
-0.000423828
4.62552e-10
-0.000441435
3.54082e-10
-0.000454791
3.61087e-10
-0.000463768
4.61843e-10
-0.000468277
5.71957e-10
-0.000468277
5.92753e-10
-0.000463767
4.79384e-10
-0.000454791
2.70578e-10
-0.000441435
5.4759e-11
-0.000423828
-9.48076e-11
-0.000402139
-1.5922e-10
-0.000376578
-1.62032e-10
-0.000347389
-1.41835e-10
-0.000314855
-1.36533e-10
-0.000279289
-1.33271e-10
-0.000241033
-1.26149e-10
-0.000200456
-1.2106e-10
-0.000157948
-9.84827e-11
-0.000113919
-8.28594e-11
-6.87936e-05
-2.30052e-05
5.97084e-11
2.30047e-05
1.0114e-10
6.87934e-05
1.15635e-10
0.000113919
1.27099e-10
0.000157948
1.3748e-10
0.000200456
1.40806e-10
0.000241033
1.41495e-10
0.000279289
1.31727e-10
0.000314856
1.19195e-10
0.00034739
1.02052e-10
0.000376578
7.34861e-11
0.00040214
2.92315e-11
0.000423829
-3.4977e-11
0.000441436
-1.26089e-10
0.000454792
-2.51881e-10
0.000463768
-4.1491e-10
0.000468278
-6.08973e-10
0.000468278
-8.19565e-10
0.000463769
-1.02541e-09
0.000454793
-1.20252e-09
0.000441437
-1.33145e-09
0.000423829
-1.40177e-09
0.00040214
-1.40792e-09
0.000376578
-1.33981e-09
0.000347389
-1.14629e-09
0.000314855
-8.90644e-10
0.000279289
-1.01039e-09
0.000241033
-1.72445e-09
0.000200457
-2.33461e-09
0.000157948
-2.11371e-09
0.000113918
-1.18469e-09
6.87906e-05
-1.21785e-11
2.30014e-05
1.17365e-09
-2.30086e-05
2.14005e-09
-6.87964e-05
2.4255e-09
-0.000113921
1.90058e-09
-0.000157948
1.26198e-09
-0.000200455
1.17509e-09
-0.000241033
1.40217e-09
-0.000279289
1.51278e-09
-0.000314855
1.47177e-09
-0.000347389
1.3631e-09
-0.000376577
1.21227e-09
-0.000402139
1.00608e-09
-0.000423828
7.26266e-10
-0.000441435
4.0096e-10
-0.000454791
1.21123e-10
-0.000463767
-7.10712e-12
-0.000468277
5.00576e-11
-0.000468277
2.10122e-10
-0.000463768
3.28638e-10
-0.000454791
3.09404e-10
-0.000441435
1.70355e-10
-0.000423828
5.29776e-12
-0.000402139
-1.07824e-10
-0.000376578
-1.48633e-10
-0.000347389
-1.4738e-10
-0.000314855
-1.37013e-10
-0.000279289
-1.51327e-10
-0.000241033
-1.60097e-10
-0.000200456
-1.47284e-10
-0.000157948
-1.28185e-10
-0.000113919
-9.71631e-11
-6.87936e-05
-2.30053e-05
4.76379e-11
2.30046e-05
9.78472e-11
6.87933e-05
1.28956e-10
0.000113919
1.53977e-10
0.000157948
1.68753e-10
0.000200456
1.77761e-10
0.000241033
1.79648e-10
0.000279289
1.7719e-10
0.000314856
1.75332e-10
0.00034739
1.64944e-10
0.000376578
1.38685e-10
0.00040214
9.1603e-11
0.000423829
1.65815e-11
0.000441436
-9.48724e-11
0.000454792
-2.48391e-10
0.000463769
-4.40676e-10
0.000468278
-6.56633e-10
0.000468279
-8.71127e-10
0.000463769
-1.05422e-09
0.000454793
-1.18306e-09
0.000441437
-1.25882e-09
0.000423829
-1.31061e-09
0.00040214
-1.36597e-09
0.000376578
-1.45547e-09
0.00034739
-1.28381e-09
0.000314855
-5.46108e-10
0.000279288
-5.51259e-10
0.000241033
-2.494e-09
0.000200459
-4.28088e-09
0.00015795
-3.82295e-09
0.000113918
-1.96229e-09
6.87887e-05
-5.96184e-11
2.29995e-05
1.84226e-09
-2.30105e-05
3.69895e-09
-6.87983e-05
4.1626e-09
-0.000113921
2.40989e-09
-0.000157946
5.35651e-10
-0.000200453
6.33367e-10
-0.000241033
1.48106e-09
-0.00027929
1.72075e-09
-0.000314856
1.62839e-09
-0.000347389
1.5059e-09
-0.000376577
1.36746e-09
-0.000402139
1.23993e-09
-0.000423828
1.09699e-09
-0.000441435
8.70811e-10
-0.000454791
5.19663e-10
-0.000463767
1.1408e-10
-0.000468277
-1.77861e-10
-0.000468277
-2.33763e-10
-0.000463768
-1.0109e-10
-0.000454791
4.56304e-11
-0.000441435
7.47201e-11
-0.000423828
-1.09168e-13
-0.000402139
-8.5748e-11
-0.000376577
-1.22759e-10
-0.000347389
-1.24688e-10
-0.000314855
-1.18514e-10
-0.000279289
-1.32228e-10
-0.000241033
-1.58086e-10
-0.000200456
-1.60618e-10
-0.000157948
-1.57604e-10
-0.000113919
-1.09742e-10
-6.87936e-05
-2.30054e-05
2.68534e-11
2.30046e-05
9.28587e-11
6.87933e-05
1.4109e-10
0.000113919
1.75435e-10
0.000157948
1.95021e-10
0.000200456
2.10633e-10
0.000241033
2.18068e-10
0.000279289
2.2704e-10
0.000314856
2.33948e-10
0.00034739
2.27529e-10
0.000376578
2.02495e-10
0.00040214
1.52661e-10
0.000423829
6.85566e-11
0.000441436
-5.78811e-11
0.000454793
-2.28005e-10
0.000463769
-4.31544e-10
0.000468279
-6.45685e-10
0.000468279
-8.39603e-10
0.000463769
-9.84256e-10
0.000454793
-1.07187e-09
0.000441437
-1.14574e-09
0.000423829
-1.30189e-09
0.00040214
-1.53001e-09
0.000376578
-2.22038e-09
0.00034739
-2.49869e-09
0.000314855
2.05471e-10
0.000279285
2.28126e-09
0.000241031
-1.47572e-09
0.000200462
-5.24643e-09
0.000157954
-3.80131e-09
0.000113916
-8.90379e-10
6.87858e-05
1.33084e-11
2.29986e-05
9.12271e-10
-2.30114e-05
3.80501e-09
-6.88012e-05
5.22087e-09
-0.000113923
1.41664e-09
-0.000157943
-2.37695e-09
-0.00020045
-3.24913e-10
-0.000241035
2.39866e-09
-0.000279293
2.19793e-09
-0.000314855
1.61886e-09
-0.000347388
1.47388e-09
-0.000376577
1.3199e-09
-0.000402139
1.17625e-09
-0.000423828
1.02747e-09
-0.000441435
9.0794e-10
-0.000454791
7.78736e-10
-0.000463767
5.23785e-10
-0.000468277
1.30222e-10
-0.000468277
-2.28169e-10
-0.000463767
-3.66617e-10
-0.000454791
-2.97029e-10
-0.000441435
-1.88104e-10
-0.000423828
-1.56758e-10
-0.000402139
-1.78988e-10
-0.000376577
-1.794e-10
-0.000347389
-1.32969e-10
-0.000314855
-9.84422e-11
-0.000279289
-9.24913e-11
-0.000241033
-1.21414e-10
-0.000200456
-1.47497e-10
-0.000157948
-1.6481e-10
-0.000113919
-1.16188e-10
-6.87937e-05
-2.30055e-05
1.49101e-11
2.30045e-05
8.54474e-11
6.87932e-05
1.45653e-10
0.000113919
1.88651e-10
0.000157948
2.19012e-10
0.000200456
2.41677e-10
0.000241033
2.58445e-10
0.000279289
2.78343e-10
0.000314856
2.92473e-10
0.00034739
2.92859e-10
0.000376578
2.75245e-10
0.00040214
2.30346e-10
0.000423829
1.47011e-10
0.000441436
1.93733e-11
0.000454793
-1.48992e-10
0.000463769
-3.43806e-10
0.000468279
-5.44859e-10
0.000468279
-7.34191e-10
0.000463769
-8.9809e-10
0.000454793
-1.02615e-09
0.000441437
-1.16258e-09
0.00042383
-1.63289e-09
0.000402141
-1.56824e-09
0.000376578
-1.7369e-09
0.00034739
-2.5756e-11
0.000314854
1.34743e-08
0.000279272
2.36651e-08
0.000241021
6.35514e-09
0.00020048
-1.14878e-08
0.000157972
-7.31231e-09
0.000113912
8.46358e-10
6.87776e-05
-9.06598e-11
2.29996e-05
-1.01819e-09
-2.30105e-05
7.17086e-09
-6.88094e-05
1.14034e-08
-0.000113927
-6.36793e-09
-0.000157925
-2.3618e-08
-0.000200432
-1.34042e-08
-0.000241045
6.53737e-11
-0.000279306
1.71963e-09
-0.000314857
1.52868e-09
-0.000347388
1.64595e-09
-0.000376577
1.27422e-09
-0.000402138
1.19996e-09
-0.000423828
1.03265e-09
-0.000441435
7.63942e-10
-0.000454791
5.42661e-10
-0.000463767
4.29716e-10
-0.000468276
2.92428e-10
-0.000468277
2.24084e-11
-0.000463767
-2.70553e-10
-0.000454791
-4.10355e-10
-0.000441435
-3.93792e-10
-0.000423828
-3.52492e-10
-0.000402139
-3.5118e-10
-0.000376577
-3.32637e-10
-0.000347389
-2.37918e-10
-0.000314855
-1.33882e-10
-0.000279289
-6.96488e-11
-0.000241033
-6.82391e-11
-0.000200456
-1.00799e-10
-0.000157948
-1.31197e-10
-0.000113919
-1.053e-10
-6.87937e-05
-2.30055e-05
7.07125e-12
2.30045e-05
7.50715e-11
6.87931e-05
1.46242e-10
0.000113919
1.98522e-10
0.000157948
2.39732e-10
0.000200456
2.68884e-10
0.000241033
2.97693e-10
0.000279289
3.29523e-10
0.000314855
3.55964e-10
0.00034739
3.72887e-10
0.000376578
3.73869e-10
0.00040214
3.45835e-10
0.000423829
2.77527e-10
0.000441437
1.66257e-10
0.000454793
1.80138e-11
0.000463769
-1.59382e-10
0.000468279
-3.71291e-10
0.000468279
-6.43236e-10
0.00046377
-9.77505e-10
0.000454793
-1.29109e-09
0.000441437
-1.04671e-09
0.000423829
7.95787e-10
0.000402139
1.07535e-08
0.000376568
1.28624e-08
0.000347388
-3.2819e-09
0.00031487
2.82949e-08
0.00027924
1.36992e-07
0.000240912
2.80085e-07
0.000200337
3.57989e-07
0.000157894
3.01223e-07
0.000113969
1.65801e-07
6.89131e-05
2.48109e-11
2.31653e-05
-1.65769e-07
-2.28447e-05
-3.01239e-07
-6.86739e-05
-3.58064e-07
-0.00011387
-2.80201e-07
-0.000158003
-1.37111e-07
-0.000200575
-2.83687e-08
-0.000241154
3.27552e-09
-0.000279338
-1.2827e-08
-0.000314841
-1.07366e-08
-0.00034739
-8.34981e-10
-0.000376587
9.92327e-10
-0.00040214
1.30933e-09
-0.000423828
1.11606e-09
-0.000441435
8.2943e-10
-0.00045479
4.61932e-10
-0.000463766
1.40579e-10
-0.000468276
-5.70687e-12
-0.000468276
-6.95785e-11
-0.000463767
-2.07769e-10
-0.000454791
-3.68427e-10
-0.000441435
-4.25276e-10
-0.000423828
-4.22117e-10
-0.000402139
-4.63144e-10
-0.000376577
-4.97848e-10
-0.000347389
-4.26013e-10
-0.000314855
-2.5912e-10
-0.000279289
-1.04722e-10
-0.000241033
-3.52283e-11
-0.000200456
-4.08324e-11
-0.000157948
-6.64966e-11
-0.000113919
-6.93986e-11
-6.87937e-05
-2.30055e-05
5.4441e-13
2.30045e-05
6.44105e-11
6.87931e-05
1.43806e-10
0.000113919
2.04421e-10
0.000157948
2.52394e-10
0.000200456
2.91214e-10
0.000241033
3.36157e-10
0.000279289
3.85553e-10
0.000314855
4.3487e-10
0.00034739
4.80834e-10
0.000376578
5.12453e-10
0.00040214
5.13615e-10
0.000423829
4.74315e-10
0.000441437
3.94319e-10
0.000454793
2.7585e-10
0.000463769
1.05574e-10
0.000468279
-1.68091e-10
0.000468279
-6.43559e-10
0.00046377
-1.38601e-09
0.000454794
-1.17115e-10
0.000441436
9.22985e-09
0.00042382
1.07504e-08
0.000402137
4.48335e-08
0.000376534
2.52027e-07
0.000347181
5.59861e-07
0.000314562
6.08596e-07
0.000279191
3.4447e-07
0.000241176
6.36599e-08
0.000200617
-9.14818e-08
0.000158049
-1.30814e-07
0.000114008
-8.35003e-08
6.88657e-05
2.16318e-10
2.30816e-05
8.38999e-08
-2.29284e-05
1.31122e-07
-6.87211e-05
9.16649e-08
-0.000113831
-6.36124e-08
-0.000157847
-3.44548e-07
-0.000200295
-6.08764e-07
-0.00024089
-5.60074e-07
-0.000279387
-2.52231e-07
-0.000315149
-4.49862e-08
-0.000347598
-1.08706e-08
-0.000376621
-9.36967e-09
-0.000402142
-5.04513e-11
-0.000423837
1.25497e-09
-0.000441436
6.47452e-10
-0.00045479
3.01418e-10
-0.000463766
9.23794e-13
-0.000468276
-2.79617e-10
-0.000468276
-4.05653e-10
-0.000463767
-4.32888e-10
-0.000454791
-4.76262e-10
-0.000441435
-4.74244e-10
-0.000423828
-4.16378e-10
-0.000402139
-4.41403e-10
-0.000376577
-5.48114e-10
-0.000347389
-5.89459e-10
-0.000314855
-4.42755e-10
-0.000279289
-2.18706e-10
-0.000241033
-5.74175e-11
-0.000200456
3.88573e-12
-0.000157948
5.78511e-12
-0.000113919
-1.20875e-11
-6.87937e-05
-2.30055e-05
4.0292e-12
2.30045e-05
5.78187e-11
6.8793e-05
1.37691e-10
0.000113919
2.03215e-10
0.000157948
2.56847e-10
0.000200456
3.11634e-10
0.000241033
3.77977e-10
0.000279289
4.53827e-10
0.000314855
5.37992e-10
0.000347389
6.24035e-10
0.000376578
6.95365e-10
0.00040214
7.34165e-10
0.000423829
7.3267e-10
0.000441437
6.91131e-10
0.000454793
6.0149e-10
0.000463769
4.26843e-10
0.000468279
7.83435e-11
0.00046828
-2.8025e-10
0.00046377
2.12824e-09
0.000454792
7.45872e-09
0.000441431
5.38511e-08
0.000423774
2.97394e-07
0.000401894
5.6676e-07
0.000376265
3.82367e-07
0.000347365
-1.24229e-07
0.000315068
-4.55239e-07
0.000279522
-4.81488e-07
0.000241203
-4.16522e-07
0.000200552
-3.77318e-07
0.00015801
-2.87469e-07
0.000113918
-1.51132e-07
6.87294e-05
-1.86607e-10
2.29307e-05
1.50825e-07
-2.30794e-05
2.87338e-07
-6.88576e-05
3.77394e-07
-0.000113921
4.16744e-07
-0.000157887
4.81753e-07
-0.00020036
4.55473e-07
-0.000240864
1.24403e-07
-0.000279056
-3.82245e-07
-0.000314642
-5.66681e-07
-0.000347413
-2.97362e-07
-0.000376891
-5.38841e-08
-0.000402385
-7.57073e-09
-0.000423884
-2.30683e-09
-0.000441441
8.46633e-11
-0.000454792
-1.90364e-10
-0.000463766
-4.00764e-10
-0.000468276
-5.424e-10
-0.000468276
-6.87068e-10
-0.000463767
-7.40774e-10
-0.000454791
-7.44252e-10
-0.000441435
-6.98054e-10
-0.000423828
-5.3742e-10
-0.000402139
-4.02898e-10
-0.000376578
-4.64094e-10
-0.000347389
-6.20614e-10
-0.000314855
-5.94455e-10
-0.000279289
-3.81809e-10
-0.000241034
-1.44232e-10
-0.000200456
8.9555e-12
-0.000157948
6.27691e-11
-0.000113919
5.5688e-11
-6.87937e-05
-2.30055e-05
1.99845e-11
2.30045e-05
5.73958e-11
6.8793e-05
1.29964e-10
0.000113919
1.95691e-10
0.000157948
2.5832e-10
0.000200456
3.34281e-10
0.000241033
4.277e-10
0.000279289
5.39531e-10
0.000314855
6.67727e-10
0.000347389
7.99185e-10
0.000376578
9.12405e-10
0.00040214
9.90776e-10
0.000423829
1.03068e-09
0.000441437
1.03133e-09
0.000454793
9.72813e-10
0.000463769
7.9986e-10
0.00046828
9.41292e-10
0.00046828
5.19769e-09
0.000463766
1.45504e-08
0.000454782
1.39259e-07
0.000441306
4.05913e-07
0.000423507
2.92473e-07
0.000402007
-2.58164e-07
0.000376816
-6.15155e-07
0.000347722
-7.00147e-07
0.000315153
-6.05146e-07
0.000279427
-3.48879e-07
0.000240946
-7.0393e-08
0.000200274
1.21022e-07
0.000157818
1.61545e-07
0.000113878
1.01626e-07
6.87893e-05
-2.18002e-10
2.30325e-05
-1.02056e-07
-2.29776e-05
-1.61926e-07
-6.87978e-05
-1.21279e-07
-0.000113961
7.03236e-08
-0.000158078
3.48995e-07
-0.000200638
6.0536e-07
-0.00024112
7.00355e-07
-0.000279151
6.15339e-07
-0.000314557
2.58385e-07
-0.000347056
-2.9219e-07
-0.00037634
-4.0562e-07
-0.000402272
-1.39058e-07
-0.00042415
-1.4498e-08
-0.000441566
-5.2637e-09
-0.000454801
-1.07443e-09
-0.00046377
-9.15121e-10
-0.000468276
-1.00433e-09
-0.000468276
-1.03974e-09
-0.000463767
-1.0436e-09
-0.000454791
-9.92868e-10
-0.000441435
-9.58877e-10
-0.000423828
-8.20963e-10
-0.00040214
-5.24475e-10
-0.000376578
-3.81518e-10
-0.000347389
-5.19696e-10
-0.000314855
-6.3434e-10
-0.000279289
-5.24721e-10
-0.000241034
-2.69743e-10
-0.000200457
-3.54891e-11
-0.000157949
8.87836e-11
-0.00011392
1.17105e-10
-6.87937e-05
-2.30054e-05
4.022e-11
2.30046e-05
6.0676e-11
6.8793e-05
1.21659e-10
0.000113919
1.85672e-10
0.000157948
2.62063e-10
0.000200456
3.61994e-10
0.000241033
4.88083e-10
0.000279289
6.42348e-10
0.000314855
8.16065e-10
0.000347389
9.88514e-10
0.000376578
1.13808e-09
0.00040214
1.25631e-09
0.000423829
1.34751e-09
0.000441436
1.40896e-09
0.000454793
1.41004e-09
0.000463769
1.44114e-09
0.00046828
3.58365e-09
0.000468278
2.71186e-08
0.000463743
1.64442e-07
0.000454645
2.49234e-07
0.000441221
-8.75124e-08
0.000423844
-5.57081e-07
0.000402477
-6.80275e-07
0.000376939
-3.82502e-07
0.000347425
1.44705e-07
0.000314626
4.56912e-07
0.000279115
2.95496e-07
0.000241108
-6.45215e-08
0.000200634
-3.13793e-07
0.000158068
-3.51941e-07
0.000113916
-1.84953e-07
6.86223e-05
3.45538e-10
2.28472e-05
1.85536e-07
-2.31628e-05
3.5225e-07
-6.89645e-05
3.13771e-07
-0.000113923
6.4252e-08
-0.000157829
-2.9582e-07
-0.000200278
-4.57135e-07
-0.000240959
-1.4484e-07
-0.000279463
3.82326e-07
-0.000315084
6.80009e-07
-0.000347354
5.56857e-07
-0.000376217
8.75086e-08
-0.000401802
-2.49007e-07
-0.000423814
-1.64176e-07
-0.00044165
-2.69766e-08
-0.000454938
-3.55991e-09
-0.000463793
-1.4788e-09
-0.000468278
-1.44737e-09
-0.000468276
-1.44765e-09
-0.000463767
-1.41663e-09
-0.000454791
-1.2654e-09
-0.000441435
-1.13081e-09
-0.000423828
-1.07538e-09
-0.00040214
-8.01247e-10
-0.000376578
-4.49323e-10
-0.00034739
-3.97967e-10
-0.000314855
-5.56903e-10
-0.000279289
-5.84605e-10
-0.000241034
-3.84831e-10
-0.000200457
-1.1579e-10
-0.000157949
7.89308e-11
-0.00011392
1.51965e-10
-6.87938e-05
-2.30054e-05
5.77215e-11
2.30046e-05
6.52125e-11
6.87929e-05
1.12367e-10
0.000113919
1.76841e-10
0.000157948
2.69994e-10
0.000200456
3.95874e-10
0.000241033
5.58251e-10
0.000279289
7.53277e-10
0.000314855
9.61776e-10
0.000347389
1.16033e-09
0.000376577
1.33962e-09
0.000402139
1.51227e-09
0.000423829
1.69039e-09
0.000441436
1.86619e-09
0.000454793
1.83651e-09
0.000463769
1.83287e-09
0.00046828
6.36645e-09
0.000468273
1.05739e-07
0.000463643
9.00005e-08
0.000454661
-2.56146e-07
0.000441567
-5.35696e-07
0.000424123
-3.00875e-07
0.000402242
2.31282e-07
0.000376407
3.39585e-07
0.000347316
-1.46852e-07
0.000315113
-6.01429e-07
0.00027957
-5.74437e-07
0.000241081
-2.19132e-07
0.000200279
5.05708e-08
0.000157798
1.20072e-07
0.000113846
1.07639e-07
6.86348e-05
7.4288e-11
2.29548e-05
-1.07452e-07
-2.30552e-05
-1.19814e-07
-6.89521e-05
-5.03074e-08
-0.000113992
2.19268e-07
-0.000158098
5.74375e-07
-0.000200633
6.01273e-07
-0.000240986
1.46798e-07
-0.000279009
-3.39479e-07
-0.000314598
-2.31226e-07
-0.000347462
3.00639e-07
-0.000376749
5.35257e-07
-0.000402037
2.55846e-07
-0.000423534
-8.99928e-08
-0.000441305
-1.05594e-07
-0.000454923
-6.27465e-09
-0.000463893
-1.78897e-09
-0.000468282
-1.79278e-09
-0.000468276
-1.82764e-09
-0.000463766
-1.7469e-09
-0.000454791
-1.60209e-09
-0.000441435
-1.31907e-09
-0.000423829
-1.18581e-09
-0.00040214
-1.04649e-09
-0.000376578
-6.64255e-10
-0.00034739
-3.74507e-10
-0.000314855
-4.31707e-10
-0.000279289
-5.46635e-10
-0.000241034
-4.46405e-10
-0.000200457
-1.99778e-10
-0.000157949
4.11019e-11
-0.00011392
1.5185e-10
-6.87939e-05
-2.30053e-05
6.78527e-11
2.30047e-05
6.96629e-11
6.87929e-05
1.04018e-10
0.000113919
1.72339e-10
0.000157948
2.82402e-10
0.000200455
4.35354e-10
0.000241033
6.31274e-10
0.000279289
8.5277e-10
0.000314855
1.07207e-09
0.000347389
1.27635e-09
0.000376577
1.49112e-09
0.000402139
1.76826e-09
0.000423828
2.12018e-09
0.000441436
1.98161e-09
0.000454793
-1.66281e-10
0.000463772
-4.72879e-09
0.000468284
-4.75367e-09
0.000468273
-2.13576e-08
0.00046366
-2.13934e-07
0.000454853
-3.03486e-07
0.000441657
4.34794e-08
0.000423776
2.49204e-07
0.000402036
-1.14193e-07
0.00037677
-4.96057e-07
0.000347698
-3.15744e-07
0.000314932
2.09182e-07
0.000279045
4.92883e-07
0.000240797
4.7835e-07
0.000200293
4.4278e-07
0.000157834
3.62089e-07
0.000113927
1.80055e-07
6.88168e-05
-3.73296e-10
2.31352e-05
-1.80717e-07
-2.28749e-05
-3.62519e-07
-6.87703e-05
-4.42882e-07
-0.000113912
-4.78143e-07
-0.000158063
-4.92533e-07
-0.000200619
-2.08906e-07
-0.000241269
3.1588e-07
-0.000279533
4.96239e-07
-0.000314778
1.14599e-07
-0.000347081
-2.48745e-07
-0.000376385
-4.33332e-08
-0.000402243
3.03262e-07
-0.000423881
2.13668e-07
-0.000441215
2.1273e-08
-0.00045473
4.74484e-09
-0.000463876
4.72595e-09
-0.000468282
2.11098e-10
-0.000468271
-1.89171e-09
-0.000463764
-2.0661e-09
-0.000454791
-1.85799e-09
-0.000441436
-1.56186e-09
-0.000423829
-1.24683e-09
-0.00040214
-1.12952e-09
-0.000376578
-8.81259e-10
-0.00034739
-4.73687e-10
-0.000314856
-3.45789e-10
-0.000279289
-4.48491e-10
-0.000241034
-4.41348e-10
-0.000200457
-2.5679e-10
-0.000157949
-1.04024e-11
-0.00011392
1.25099e-10
-6.8794e-05
-2.30053e-05
6.43186e-11
2.30047e-05
6.94778e-11
6.87929e-05
9.88668e-11
0.000113919
1.73968e-10
0.000157948
2.99786e-10
0.000200455
4.7712e-10
0.000241032
6.931e-10
0.000279288
9.13809e-10
0.000314854
1.11137e-09
0.000347389
1.30299e-09
0.000376577
1.57733e-09
0.000402139
2.05546e-09
0.000423828
2.41742e-09
0.000441436
-1.84049e-09
0.000454797
-2.53991e-08
0.000463795
-1.2482e-07
0.000468384
-1.08274e-07
0.000468256
-1.083e-07
0.00046366
-9.93014e-08
0.000454844
1.22303e-07
0.000441435
8.08219e-08
0.000423818
-2.5286e-07
0.00040237
-2.5999e-07
0.000376777
2.11354e-07
0.000347227
6.22757e-07
0.000314521
7.12458e-07
0.000278955
5.60649e-07
0.000240949
2.28755e-07
0.000200625
-3.80146e-08
0.0001581
-1.23932e-07
0.000114013
-1.17537e-07
6.88104e-05
-6.14558e-11
2.30177e-05
1.1741e-07
-2.29924e-05
1.23799e-07
-6.87767e-05
3.78947e-08
-0.000113826
-2.28815e-07
-0.000157796
-5.60603e-07
-0.000200287
-7.12342e-07
-0.000241118
-6.22718e-07
-0.000279623
-2.11469e-07
-0.00031519
2.59893e-07
-0.000347552
2.53033e-07
-0.000376379
-8.04302e-08
-0.000401909
-1.22051e-07
-0.000423839
9.92843e-08
-0.000441436
1.08234e-07
-0.000454739
1.08215e-07
-0.000463876
1.24705e-07
-0.000468299
2.53441e-08
-0.000468172
1.89034e-09
-0.000463741
-2.31409e-09
-0.000454787
-2.03812e-09
-0.000441436
-1.69689e-09
-0.000423829
-1.32586e-09
-0.00040214
-1.09876e-09
-0.000376579
-9.7032e-10
-0.00034739
-6.16223e-10
-0.000314856
-3.37515e-10
-0.00027929
-3.46026e-10
-0.000241034
-3.85718e-10
-0.000200457
-2.73667e-10
-0.000157949
-6.30954e-11
-0.00011392
8.03781e-11
-6.87941e-05
-2.30053e-05
4.87214e-11
2.30047e-05
6.12864e-11
6.87929e-05
9.59927e-11
0.000113919
1.80363e-10
0.000157948
3.20748e-10
0.000200455
5.13057e-10
0.000241032
7.25369e-10
0.000279288
9.12253e-10
0.000314854
1.05806e-09
0.000347388
1.22264e-09
0.000376577
1.55798e-09
0.000402139
2.30324e-09
0.000423827
-1.03004e-10
0.000441438
-9.46964e-09
0.000454806
-1.46831e-07
0.000463932
-1.31145e-07
0.000468368
6.13837e-08
0.000468064
5.23699e-08
0.000463669
5.2384e-08
0.000454844
3.19952e-08
0.000441456
-1.22695e-07
0.000423972
-9.5747e-09
0.000402257
4.12653e-07
0.000376355
6.14713e-07
0.000347025
3.19701e-07
0.000314816
-2.23978e-07
0.000279499
-4.37584e-07
0.000241162
-2.69822e-07
0.000200457
-9.41589e-08
0.000157925
-1.17188e-08
0.00011393
-4.41252e-09
6.88031e-05
1.84305e-10
2.30131e-05