/*--------------------------------*- C++ -*----------------------------------*\
| =========                 |                                                 |
| \\      /  F ield         | OpenFOAM: The Open Source CFD Toolbox           |
|  \\    /   O peration     | Version:  v1806                                 |
|   \\  /    A nd           | Web:      www.OpenFOAM.com                      |
|    \\/     M anipulation  |                                                 |
\*---------------------------------------------------------------------------*/
FoamFile
{
    version     2.0;
    format      ascii;
    class       volVectorField;
    location    "0.001";
    object      U;
}
// * * * * * * * * * * * * * * * * * * * * * * * * * * * * * * * * * * * * * //

dimensions      [0 1 -1 0 0 0 0];


internalField   nonuniform List<vector> 
4096
(
(3.24918e-08 0.0147145 0)
(6.65496e-08 0.0440018 0)
(9.52359e-08 0.0728653 0)
(1.01534e-07 0.101027 0)
(1.36462e-07 0.128216 0)
(1.78989e-07 0.15417 0)
(2.25485e-07 0.178639 0)
(2.78052e-07 0.201388 0)
(3.35604e-07 0.222197 0)
(3.91336e-07 0.240867 0)
(4.4394e-07 0.257217 0)
(4.95969e-07 0.271089 0)
(5.52454e-07 0.282351 0)
(6.21865e-07 0.290894 0)
(7.07661e-07 0.296636 0)
(8.07905e-07 0.29952 0)
(9.28997e-07 0.29952 0)
(1.08395e-06 0.296636 0)
(1.27345e-06 0.290894 0)
(1.48209e-06 0.282352 0)
(1.69245e-06 0.27109 0)
(1.8945e-06 0.257217 0)
(2.08098e-06 0.240867 0)
(2.23193e-06 0.222198 0)
(2.31601e-06 0.201388 0)
(2.3147e-06 0.178639 0)
(2.21923e-06 0.15417 0)
(2.01366e-06 0.128216 0)
(1.69805e-06 0.101028 0)
(1.29491e-06 0.0728659 0)
(8.19411e-07 0.0440024 0)
(2.9105e-07 0.0147152 0)
(-2.4972e-07 -0.0147138 0)
(-7.72489e-07 -0.044001 0)
(-1.2594e-06 -0.0728646 0)
(-1.67739e-06 -0.101026 0)
(-1.99805e-06 -0.128215 0)
(-2.21744e-06 -0.15417 0)
(-2.33249e-06 -0.178639 0)
(-2.34463e-06 -0.201388 0)
(-2.27637e-06 -0.222198 0)
(-2.14897e-06 -0.240867 0)
(-1.97195e-06 -0.257217 0)
(-1.76068e-06 -0.27109 0)
(-1.53741e-06 -0.282352 0)
(-1.31985e-06 -0.290895 0)
(-1.11754e-06 -0.296637 0)
(-9.34764e-07 -0.299521 0)
(-7.7787e-07 -0.299521 0)
(-6.55595e-07 -0.296637 0)
(-5.67642e-07 -0.290895 0)
(-5.02338e-07 -0.282352 0)
(-4.48905e-07 -0.27109 0)
(-4.02938e-07 -0.257217 0)
(-3.60613e-07 -0.240867 0)
(-3.17574e-07 -0.222198 0)
(-2.73448e-07 -0.201388 0)
(-2.29947e-07 -0.178639 0)
(-1.86546e-07 -0.15417 0)
(-1.44787e-07 -0.128216 0)
(-1.10543e-07 -0.101027 0)
(-8.59549e-08 -0.0728653 0)
(-7.9848e-08 -0.0440018 0)
(-2.41283e-08 -0.0147145 0)
(2.02304e-08 0.0147145 0)
(7.15895e-08 0.0440017 0)
(5.71635e-08 0.0728652 0)
(6.65327e-08 0.101027 0)
(8.72151e-08 0.128216 0)
(1.16356e-07 0.15417 0)
(1.50304e-07 0.178639 0)
(1.90575e-07 0.201388 0)
(2.40133e-07 0.222197 0)
(2.96175e-07 0.240867 0)
(3.57448e-07 0.257216 0)
(4.25338e-07 0.271089 0)
(5.01771e-07 0.282351 0)
(5.91193e-07 0.290894 0)
(6.98681e-07 0.296635 0)
(8.25256e-07 0.299519 0)
(9.71366e-07 0.29952 0)
(1.14191e-06 0.296635 0)
(1.34072e-06 0.290894 0)
(1.56251e-06 0.282351 0)
(1.79372e-06 0.271089 0)
(2.01919e-06 0.257217 0)
(2.22659e-06 0.240867 0)
(2.4003e-06 0.222197 0)
(2.51355e-06 0.201388 0)
(2.53885e-06 0.17864 0)
(2.45725e-06 0.154171 0)
(2.25142e-06 0.128217 0)
(1.91578e-06 0.101028 0)
(1.46951e-06 0.0728669 0)
(9.39993e-07 0.0440035 0)
(3.54528e-07 0.0147163 0)
(-2.49157e-07 -0.0147127 0)
(-8.33308e-07 -0.044 0)
(-1.37127e-06 -0.0728637 0)
(-1.8341e-06 -0.101026 0)
(-2.19216e-06 -0.128215 0)
(-2.43356e-06 -0.154169 0)
(-2.56016e-06 -0.178639 0)
(-2.5805e-06 -0.201388 0)
(-2.5144e-06 -0.222198 0)
(-2.38441e-06 -0.240867 0)
(-2.20505e-06 -0.257218 0)
(-1.98759e-06 -0.27109 0)
(-1.74558e-06 -0.282353 0)
(-1.4928e-06 -0.290896 0)
(-1.24118e-06 -0.296637 0)
(-1.00061e-06 -0.299522 0)
(-7.80688e-07 -0.299522 0)
(-5.92661e-07 -0.296637 0)
(-4.45397e-07 -0.290896 0)
(-3.39392e-07 -0.282353 0)
(-2.68806e-07 -0.271091 0)
(-2.26764e-07 -0.257218 0)
(-2.0501e-07 -0.240868 0)
(-1.92448e-07 -0.222198 0)
(-1.78974e-07 -0.201388 0)
(-1.60481e-07 -0.178639 0)
(-1.37319e-07 -0.15417 0)
(-1.1272e-07 -0.128216 0)
(-9.05511e-08 -0.101027 0)
(-7.74677e-08 -0.0728653 0)
(-6.85783e-08 -0.0440018 0)
(-5.48889e-08 -0.0147145 0)
(2.14675e-08 0.0147145 0)
(4.68715e-08 0.0440017 0)
(3.83822e-08 0.0728653 0)
(3.34774e-08 0.101027 0)
(4.09113e-08 0.128216 0)
(5.50793e-08 0.15417 0)
(7.408e-08 0.178639 0)
(1.0041e-07 0.201388 0)
(1.35846e-07 0.222197 0)
(1.81423e-07 0.240867 0)
(2.39743e-07 0.257217 0)
(3.12851e-07 0.271089 0)
(4.01181e-07 0.282351 0)
(5.06528e-07 0.290894 0)
(6.33228e-07 0.296635 0)
(7.84615e-07 0.299519 0)
(9.61767e-07 0.299519 0)
(1.16602e-06 0.296635 0)
(1.39848e-06 0.290893 0)
(1.65641e-06 0.282351 0)
(1.93092e-06 0.271089 0)
(2.20686e-06 0.257216 0)
(2.46592e-06 0.240867 0)
(2.68853e-06 0.222197 0)
(2.84877e-06 0.201388 0)
(2.91418e-06 0.17864 0)
(2.85357e-06 0.154171 0)
(2.64074e-06 0.128217 0)
(2.26449e-06 0.101029 0)
(1.74143e-06 0.0728674 0)
(1.1081e-06 0.0440041 0)
(4.07053e-07 0.0147169 0)
(-3.13215e-07 -0.0147121 0)
(-1.00349e-06 -0.0439996 0)
(-1.6247e-06 -0.0728634 0)
(-2.14429e-06 -0.101026 0)
(-2.53234e-06 -0.128215 0)
(-2.77497e-06 -0.154169 0)
(-2.88131e-06 -0.178639 0)
(-2.87281e-06 -0.201388 0)
(-2.77503e-06 -0.222198 0)
(-2.61279e-06 -0.240868 0)
(-2.40592e-06 -0.257218 0)
(-2.16829e-06 -0.271091 0)
(-1.9095e-06 -0.282353 0)
(-1.63743e-06 -0.290895 0)
(-1.35921e-06 -0.296637 0)
(-1.08182e-06 -0.299521 0)
(-8.14041e-07 -0.299521 0)
(-5.68794e-07 -0.296637 0)
(-3.61492e-07 -0.290896 0)
(-2.04134e-07 -0.282353 0)
(-1.00923e-07 -0.271091 0)
(-4.78852e-08 -0.257218 0)
(-3.41776e-08 -0.240868 0)
(-4.45484e-08 -0.222198 0)
(-6.31954e-08 -0.201389 0)
(-7.78844e-08 -0.178639 0)
(-8.23858e-08 -0.15417 0)
(-7.9281e-08 -0.128216 0)
(-7.25861e-08 -0.101027 0)
(-7.22262e-08 -0.0728653 0)
(-7.46557e-08 -0.0440018 0)
(-3.9623e-08 -0.0147145 0)
(2.45768e-08 0.0147145 0)
(4.42952e-08 0.0440018 0)
(2.36443e-08 0.0728653 0)
(1.14043e-08 0.101027 0)
(1.10417e-08 0.128216 0)
(1.41189e-08 0.15417 0)
(2.13743e-08 0.178639 0)
(3.51801e-08 0.201388 0)
(5.60997e-08 0.222197 0)
(8.65927e-08 0.240867 0)
(1.30805e-07 0.257217 0)
(1.92554e-07 0.271089 0)
(2.74413e-07 0.282351 0)
(3.79239e-07 0.290894 0)
(5.11889e-07 0.296635 0)
(6.77839e-07 0.299519 0)
(8.81049e-07 0.299519 0)
(1.12363e-06 0.296635 0)
(1.40531e-06 0.290893 0)
(1.72178e-06 0.28235 0)
(2.06304e-06 0.271089 0)
(2.41175e-06 0.257216 0)
(2.74439e-06 0.240866 0)
(3.03575e-06 0.222197 0)
(3.25911e-06 0.201388 0)
(3.38098e-06 0.17864 0)
(3.35782e-06 0.154171 0)
(3.1436e-06 0.128217 0)
(2.71265e-06 0.101029 0)
(2.0779e-06 0.0728678 0)
(1.28686e-06 0.0440046 0)
(4.08215e-07 0.0147174 0)
(-4.82822e-07 -0.0147117 0)
(-1.31923e-06 -0.0439992 0)
(-2.04727e-06 -0.0728632 0)
(-2.62573e-06 -0.101026 0)
(-3.02309e-06 -0.128215 0)
(-3.22667e-06 -0.15417 0)
(-3.25886e-06 -0.178639 0)
(-3.16307e-06 -0.201389 0)
(-2.97816e-06 -0.222199 0)
(-2.7338e-06 -0.240868 0)
(-2.45557e-06 -0.257218 0)
(-2.16537e-06 -0.271091 0)
(-1.87907e-06 -0.282353 0)
(-1.60552e-06 -0.290895 0)
(-1.34603e-06 -0.296637 0)
(-1.09596e-06 -0.299521 0)
(-8.49846e-07 -0.299521 0)
(-6.08053e-07 -0.296637 0)
(-3.80186e-07 -0.290895 0)
(-1.82716e-07 -0.282352 0)
(-3.30318e-08 -0.271091 0)
(5.77902e-08 -0.257218 0)
(9.1243e-08 -0.240868 0)
(8.14694e-08 -0.222198 0)
(4.72164e-08 -0.201389 0)
(5.47822e-09 -0.17864 0)
(-2.88634e-08 -0.15417 0)
(-4.77877e-08 -0.128216 0)
(-5.42166e-08 -0.101027 0)
(-6.6159e-08 -0.0728653 0)
(-8.12241e-08 -0.0440018 0)
(-4.52065e-08 -0.0147145 0)
(1.73102e-08 0.0147145 0)
(4.30661e-08 0.0440018 0)
(1.12838e-08 0.0728653 0)
(-9.71677e-09 0.101027 0)
(-1.8185e-08 0.128216 0)
(-2.58286e-08 0.15417 0)
(-3.05858e-08 0.178639 0)
(-3.17774e-08 0.201388 0)
(-2.84032e-08 0.222197 0)
(-1.64191e-08 0.240867 0)
(9.06109e-09 0.257217 0)
(5.30649e-08 0.271089 0)
(1.20983e-07 0.282351 0)
(2.18855e-07 0.290894 0)
(3.53925e-07 0.296635 0)
(5.33963e-07 0.299519 0)
(7.65396e-07 0.299519 0)
(1.05174e-06 0.296634 0)
(1.39209e-06 0.290893 0)
(1.77968e-06 0.28235 0)
(2.2006e-06 0.271088 0)
(2.63263e-06 0.257216 0)
(3.04683e-06 0.240866 0)
(3.41361e-06 0.222197 0)
(3.70924e-06 0.201388 0)
(3.90935e-06 0.178639 0)
(3.96232e-06 0.154171 0)
(3.78659e-06 0.128217 0)
(3.32025e-06 0.101029 0)
(2.558e-06 0.0728684 0)
(1.55163e-06 0.0440054 0)
(4.0995e-07 0.0147184 0)
(-7.38094e-07 -0.0147107 0)
(-1.79568e-06 -0.0439984 0)
(-2.68318e-06 -0.0728627 0)
(-3.33517e-06 -0.101025 0)
(-3.71863e-06 -0.128215 0)
(-3.83611e-06 -0.15417 0)
(-3.7447e-06 -0.17864 0)
(-3.52488e-06 -0.201389 0)
(-3.22438e-06 -0.222199 0)
(-2.86491e-06 -0.240869 0)
(-2.47244e-06 -0.257219 0)
(-2.07833e-06 -0.271092 0)
(-1.71148e-06 -0.282354 0)
(-1.39364e-06 -0.290896 0)
(-1.13451e-06 -0.296637 0)
(-9.28405e-07 -0.299521 0)
(-7.55909e-07 -0.299521 0)
(-5.91882e-07 -0.296636 0)
(-4.18395e-07 -0.290895 0)
(-2.35005e-07 -0.282352 0)
(-5.92005e-08 -0.27109 0)
(8.2495e-08 -0.257218 0)
(1.67599e-07 -0.240868 0)
(1.90179e-07 -0.222198 0)
(1.63591e-07 -0.201389 0)
(1.09993e-07 -0.17864 0)
(4.95772e-08 -0.15417 0)
(1.12334e-09 -0.128216 0)
(-2.50104e-08 -0.101027 0)
(-5.10182e-08 -0.0728653 0)
(-7.98714e-08 -0.0440018 0)
(-5.67824e-08 -0.0147145 0)
(1.24529e-08 0.0147145 0)
(3.62413e-08 0.0440018 0)
(-4.65718e-09 0.0728653 0)
(-3.54544e-08 0.101027 0)
(-5.46369e-08 0.128216 0)
(-7.52585e-08 0.15417 0)
(-9.48967e-08 0.178639 0)
(-1.14387e-07 0.201388 0)
(-1.31164e-07 0.222197 0)
(-1.39583e-07 0.240867 0)
(-1.34101e-07 0.257217 0)
(-1.08579e-07 0.271089 0)
(-5.49095e-08 0.282351 0)
(3.6481e-08 0.290893 0)
(1.75554e-07 0.296635 0)
(3.71541e-07 0.299519 0)
(6.31671e-07 0.299519 0)
(9.60054e-07 0.296634 0)
(1.35616e-06 0.290893 0)
(1.81251e-06 0.28235 0)
(2.31257e-06 0.271088 0)
(2.83009e-06 0.257215 0)
(3.33201e-06 0.240866 0)
(3.78332e-06 0.222196 0)
(4.16395e-06 0.201387 0)
(4.48046e-06 0.178639 0)
(4.70218e-06 0.15417 0)
(4.70012e-06 0.128217 0)
(4.31549e-06 0.10103 0)
(3.44759e-06 0.0728694 0)
(2.11638e-06 0.044007 0)
(5.32455e-07 0.0147203 0)
(-1.03701e-06 -0.0147089 0)
(-2.46068e-06 -0.0439968 0)
(-3.61034e-06 -0.0728614 0)
(-4.34821e-06 -0.101025 0)
(-4.6622e-06 -0.128215 0)
(-4.62532e-06 -0.15417 0)
(-4.37336e-06 -0.17864 0)
(-4.03005e-06 -0.201389 0)
(-3.62308e-06 -0.222199 0)
(-3.14508e-06 -0.240869 0)
(-2.62212e-06 -0.257219 0)
(-2.09526e-06 -0.271092 0)
(-1.60086e-06 -0.282354 0)
(-1.1692e-06 -0.290897 0)
(-8.24579e-07 -0.296638 0)
(-5.81469e-07 -0.299522 0)
(-4.35441e-07 -0.299522 0)
(-3.56699e-07 -0.296637 0)
(-2.97641e-07 -0.290895 0)
(-2.15703e-07 -0.282352 0)
(-9.5464e-08 -0.27109 0)
(4.6836e-08 -0.257218 0)
(1.75396e-07 -0.240868 0)
(2.53484e-07 -0.222198 0)
(2.64529e-07 -0.201389 0)
(2.2192e-07 -0.17864 0)
(1.52301e-07 -0.15417 0)
(7.82237e-08 -0.128216 0)
(2.14635e-08 -0.101027 0)
(-2.86216e-08 -0.0728653 0)
(-7.49527e-08 -0.0440018 0)
(-6.10753e-08 -0.0147145 0)
(1.14658e-08 0.0147146 0)
(2.29461e-08 0.0440018 0)
(-2.67889e-08 0.0728653 0)
(-6.71603e-08 0.101027 0)
(-9.82532e-08 0.128216 0)
(-1.33093e-07 0.15417 0)
(-1.70394e-07 0.178639 0)
(-2.10552e-07 0.201388 0)
(-2.48922e-07 0.222197 0)
(-2.79117e-07 0.240867 0)
(-2.94831e-07 0.257216 0)
(-2.8796e-07 0.271089 0)
(-2.47706e-07 0.282351 0)
(-1.62298e-07 0.290893 0)
(-2.09245e-08 0.296634 0)
(1.85454e-07 0.299519 0)
(4.63881e-07 0.299519 0)
(8.19062e-07 0.296634 0)
(1.25269e-06 0.290892 0)
(1.76199e-06 0.282349 0)
(2.33657e-06 0.271087 0)
(2.95426e-06 0.257215 0)
(3.58265e-06 0.240865 0)
(4.16899e-06 0.222196 0)
(4.6645e-06 0.201387 0)
(5.12344e-06 0.178639 0)
(5.63566e-06 0.15417 0)
(6.08133e-06 0.128217 0)
(6.07464e-06 0.10103 0)
(5.15764e-06 0.0728711 0)
(3.20575e-06 0.0440097 0)
(7.80204e-07 0.0147231 0)
(-1.46784e-06 -0.0147063 0)
(-3.51162e-06 -0.0439944 0)
(-5.13869e-06 -0.0728599 0)
(-5.90049e-06 -0.101024 0)
(-5.89492e-06 -0.128215 0)
(-5.50412e-06 -0.15417 0)
(-5.0538e-06 -0.17864 0)
(-4.64165e-06 -0.201389 0)
(-4.16275e-06 -0.222199 0)
(-3.55904e-06 -0.240869 0)
(-2.89362e-06 -0.257219 0)
(-2.23452e-06 -0.271092 0)
(-1.62391e-06 -0.282354 0)
(-1.08594e-06 -0.290897 0)
(-6.30859e-07 -0.296638 0)
(-2.7331e-07 -0.299523 0)
(-3.64775e-08 -0.299522 0)
(6.72715e-08 -0.296637 0)
(6.24148e-08 -0.290896 0)
(1.29702e-08 -0.282353 0)
(-8.2599e-09 -0.27109 0)
(3.85672e-08 -0.257217 0)
(1.41983e-07 -0.240868 0)
(2.53401e-07 -0.222198 0)
(3.18753e-07 -0.201389 0)
(3.12974e-07 -0.17864 0)
(2.52949e-07 -0.15417 0)
(1.69359e-07 -0.128216 0)
(8.7724e-08 -0.101027 0)
(6.42946e-09 -0.0728653 0)
(-6.53245e-08 -0.0440017 0)
(-5.80737e-08 -0.0147144 0)
(7.30675e-09 0.0147146 0)
(7.71617e-09 0.0440019 0)
(-5.28309e-08 0.0728654 0)
(-1.04145e-07 0.101027 0)
(-1.48059e-07 0.128216 0)
(-1.9809e-07 0.15417 0)
(-2.54921e-07 0.178639 0)
(-3.16942e-07 0.201388 0)
(-3.77779e-07 0.222197 0)
(-4.30663e-07 0.240867 0)
(-4.68064e-07 0.257216 0)
(-4.79879e-07 0.271089 0)
(-4.54301e-07 0.282351 0)
(-3.80174e-07 0.290893 0)
(-2.48078e-07 0.296634 0)
(-4.99782e-08 0.299519 0)
(2.21254e-07 0.299518 0)
(5.72602e-07 0.296634 0)
(1.01369e-06 0.290892 0)
(1.55971e-06 0.282349 0)
(2.22433e-06 0.271086 0)
(3.00056e-06 0.257214 0)
(3.8697e-06 0.240864 0)
(4.74754e-06 0.222195 0)
(5.40434e-06 0.201386 0)
(5.79126e-06 0.178639 0)
(6.42588e-06 0.154169 0)
(7.78901e-06 0.128215 0)
(9.05317e-06 0.10103 0)
(8.34086e-06 0.0728759 0)
(4.95991e-06 0.044018 0)
(8.44347e-07 0.0147313 0)
(-2.2139e-06 -0.0146991 0)
(-5.29481e-06 -0.0439875 0)
(-8.05676e-06 -0.0728563 0)
(-8.54272e-06 -0.101025 0)
(-7.28452e-06 -0.128217 0)
(-6.03469e-06 -0.154171 0)
(-5.54303e-06 -0.17864 0)
(-5.30697e-06 -0.20139 0)
(-4.77534e-06 -0.2222 0)
(-3.96619e-06 -0.24087 0)
(-3.1122e-06 -0.25722 0)
(-2.30905e-06 -0.271093 0)
(-1.59816e-06 -0.282355 0)
(-1.00911e-06 -0.290897 0)
(-5.28552e-07 -0.296638 0)
(-1.27827e-07 -0.299523 0)
(2.0097e-07 -0.299523 0)
(4.2728e-07 -0.296638 0)
(5.07824e-07 -0.290896 0)
(4.41363e-07 -0.282353 0)
(2.97305e-07 -0.27109 0)
(1.80508e-07 -0.257217 0)
(1.58623e-07 -0.240867 0)
(2.23114e-07 -0.222198 0)
(3.11984e-07 -0.201388 0)
(3.58086e-07 -0.17864 0)
(3.33087e-07 -0.15417 0)
(2.57395e-07 -0.128216 0)
(1.63431e-07 -0.101027 0)
(5.60229e-08 -0.0728653 0)
(-4.1922e-08 -0.0440017 0)
(-5.17463e-08 -0.0147144 0)
(2.44064e-09 0.0147147 0)
(-1.0483e-08 0.0440019 0)
(-8.16505e-08 0.0728654 0)
(-1.44558e-07 0.101027 0)
(-2.01806e-07 0.128216 0)
(-2.68337e-07 0.15417 0)
(-3.455e-07 0.178639 0)
(-4.2916e-07 0.201388 0)
(-5.12195e-07 0.222197 0)
(-5.87655e-07 0.240867 0)
(-6.47204e-07 0.257216 0)
(-6.80714e-07 0.271089 0)
(-6.78372e-07 0.282351 0)
(-6.32076e-07 0.290893 0)
(-5.34601e-07 0.296634 0)
(-3.78084e-07 0.299519 0)
(-1.52462e-07 0.299518 0)
(1.57804e-07 0.296633 0)
(5.80954e-07 0.290891 0)
(1.16743e-06 0.282348 0)
(1.97664e-06 0.271085 0)
(3.00564e-06 0.257213 0)
(4.24418e-06 0.240863 0)
(5.72784e-06 0.222194 0)
(6.80705e-06 0.201387 0)
(6.21658e-06 0.178646 0)
(5.69828e-06 0.154182 0)
(1.00558e-05 0.128221 0)
(1.73161e-05 0.101014 0)
(1.81763e-05 0.0728251 0)
(9.47025e-06 0.0439307 0)
(-1.29386e-07 0.0146171 0)
(-4.09787e-06 -0.0148165 0)
(-1.00533e-05 -0.0440778 0)
(-1.72305e-05 -0.0729115 0)
(-1.58729e-05 -0.101048 0)
(-8.8626e-06 -0.128218 0)
(-4.97531e-06 -0.154164 0)
(-5.77601e-06 -0.178635 0)
(-6.51847e-06 -0.20139 0)
(-5.57697e-06 -0.222202 0)
(-4.22649e-06 -0.240872 0)
(-3.09983e-06 -0.257221 0)
(-2.12908e-06 -0.271094 0)
(-1.3189e-06 -0.282355 0)
(-6.97666e-07 -0.290898 0)
(-2.38241e-07 -0.296639 0)
(9.72822e-08 -0.299523 0)
(3.63697e-07 -0.299522 0)
(6.02027e-07 -0.296638 0)
(7.87529e-07 -0.290896 0)
(8.43065e-07 -0.282353 0)
(7.28214e-07 -0.271091 0)
(5.0877e-07 -0.257218 0)
(3.18104e-07 -0.240867 0)
(2.46428e-07 -0.222198 0)
(2.8267e-07 -0.201388 0)
(3.50597e-07 -0.178639 0)
(3.72531e-07 -0.15417 0)
(3.25667e-07 -0.128216 0)
(2.34632e-07 -0.101027 0)
(1.12803e-07 -0.0728652 0)
(-5.29864e-09 -0.0440016 0)
(-3.6969e-08 -0.0147143 0)
(1.53419e-09 0.0147147 0)
(-3.16821e-08 0.044002 0)
(-1.12753e-07 0.0728655 0)
(-1.86521e-07 0.101027 0)
(-2.57108e-07 0.128216 0)
(-3.40802e-07 0.15417 0)
(-4.37111e-07 0.178639 0)
(-5.40249e-07 0.201388 0)
(-6.4379e-07 0.222197 0)
(-7.4147e-07 0.240867 0)
(-8.26117e-07 0.257217 0)
(-8.90818e-07 0.271089 0)
(-9.30705e-07 0.282351 0)
(-9.42117e-07 0.290893 0)
(-9.1915e-07 0.296634 0)
(-8.49222e-07 0.299518 0)
(-7.0859e-07 0.299518 0)
(-4.60289e-07 0.296632 0)
(-5.25167e-08 0.29089 0)
(5.98558e-07 0.282347 0)
(1.59656e-06 0.271084 0)
(2.8856e-06 0.257211 0)
(4.34502e-06 0.240864 0)
(8.42203e-06 0.222198 0)
(1.68206e-05 0.201372 0)
(1.89383e-05 0.178549 0)
(4.95873e-06 0.153911 0)
(-1.53428e-05 0.127679 0)
(-3.20618e-05 0.100119 0)
(-4.45396e-05 0.0715493 0)
(-4.87867e-05 0.0423456 0)
(-3.02895e-05 0.0128844 0)
(1.52604e-05 -0.0165436 0)
(4.47912e-05 -0.0456512 0)
(4.22822e-05 -0.0741681 0)
(3.20946e-05 -0.101918 0)
(1.82962e-05 -0.12874 0)
(8.09541e-08 -0.154426 0)
(-1.40069e-05 -0.178735 0)
(-1.38438e-05 -0.201412 0)
(-7.39075e-06 -0.222202 0)
(-4.13104e-06 -0.240872 0)
(-2.8461e-06 -0.257223 0)
(-1.63449e-06 -0.271095 0)
(-7.0498e-07 -0.282357 0)
(-8.80923e-08 -0.290899 0)
(3.35424e-07 -0.296639 0)
(6.11675e-07 -0.299523 0)
(7.55328e-07 -0.299522 0)
(8.32949e-07 -0.296637 0)
(9.2952e-07 -0.290896 0)
(1.04164e-06 -0.282353 0)
(1.06076e-06 -0.271091 0)
(9.02047e-07 -0.257218 0)
(6.25626e-07 -0.240868 0)
(3.89767e-07 -0.222198 0)
(2.95846e-07 -0.201388 0)
(3.19694e-07 -0.178639 0)
(3.65642e-07 -0.15417 0)
(3.59309e-07 -0.128216 0)
(2.89484e-07 -0.101027 0)
(1.6759e-07 -0.0728652 0)
(3.71117e-08 -0.0440016 0)
(-1.2583e-08 -0.0147143 0)
(4.62484e-09 0.0147148 0)
(-5.19665e-08 0.0440021 0)
(-1.44213e-07 0.0728656 0)
(-2.27638e-07 0.101027 0)
(-3.10586e-07 0.128216 0)
(-4.09616e-07 0.15417 0)
(-5.21355e-07 0.178639 0)
(-6.40433e-07 0.201388 0)
(-7.62468e-07 0.222198 0)
(-8.83481e-07 0.240867 0)
(-1.0006e-06 0.257217 0)
(-1.11382e-06 0.271089 0)
(-1.22588e-06 0.282351 0)
(-1.338e-06 0.290893 0)
(-1.4412e-06 0.296634 0)
(-1.50498e-06 0.299518 0)
(-1.47086e-06 0.299517 0)
(-1.26282e-06 0.296632 0)
(-8.3701e-07 0.29089 0)
(-1.70689e-07 0.282346 0)
(1.14624e-06 0.271085 0)
(5.85314e-06 0.257214 0)
(1.12003e-05 0.240828 0)
(-4.92384e-06 0.221978 0)
(-7.29411e-05 0.200681 0)
(-0.00020694 0.177001 0)
(-0.000389748 0.151183 0)
(-0.000553347 0.123824 0)
(-0.000592508 0.0957874 0)
(-0.000479103 0.0674967 0)
(-0.000278569 0.0388388 0)
(-8.81061e-05 0.00976916 0)
(7.39217e-05 -0.0196788 0)
(0.000271978 -0.0491757 0)
(0.00047368 -0.078241 0)
(0.00058685 -0.106267 0)
(0.00054901 -0.132595 0)
(0.000388272 -0.157129 0)
(0.000209644 -0.180243 0)
(8.02085e-05 -0.202071 0)
(1.36419e-05 -0.222414 0)
(-5.69699e-06 -0.240913 0)
(-4.141e-06 -0.257225 0)
(-9.02516e-07 -0.271096 0)
(2.00829e-07 -0.282358 0)
(7.92676e-07 -0.2909 0)
(1.16429e-06 -0.29664 0)
(1.37089e-06 -0.299524 0)
(1.42754e-06 -0.299523 0)
(1.3513e-06 -0.296638 0)
(1.22147e-06 -0.290896 0)
(1.16395e-06 -0.282353 0)
(1.19315e-06 -0.271091 0)
(1.16461e-06 -0.257218 0)
(9.57314e-07 -0.240868 0)
(6.41361e-07 -0.222198 0)
(3.96454e-07 -0.201388 0)
(3.12141e-07 -0.178639 0)
(3.32847e-07 -0.15417 0)
(3.54605e-07 -0.128216 0)
(3.1846e-07 -0.101027 0)
(2.12805e-07 -0.0728651 0)
(7.92606e-08 -0.0440015 0)
(1.55593e-08 -0.0147142 0)
(9.31331e-09 0.0147149 0)
(-6.74726e-08 0.0440022 0)
(-1.72412e-07 0.0728657 0)
(-2.64071e-07 0.101027 0)
(-3.56916e-07 0.128216 0)
(-4.66553e-07 0.15417 0)
(-5.88282e-07 0.17864 0)
(-7.19193e-07 0.201388 0)
(-8.58047e-07 0.222198 0)
(-1.00562e-06 0.240867 0)
(-1.16717e-06 0.257217 0)
(-1.35319e-06 0.27109 0)
(-1.57602e-06 0.282351 0)
(-1.83977e-06 0.290894 0)
(-2.12288e-06 0.296634 0)
(-2.36036e-06 0.299518 0)
(-2.43647e-06 0.299517 0)
(-2.23213e-06 0.296631 0)
(-1.68893e-06 0.290889 0)
(9.4442e-07 0.282349 0)
(4.79979e-06 0.271067 0)
(-2.67095e-05 0.257008 0)
(-0.000186254 0.239981 0)
(-0.00057283 0.219835 0)
(-0.00102195 0.197339 0)
(-0.00108804 0.17425 0)
(-0.000685037 0.151422 0)
(-0.000138485 0.128355 0)
(0.00023865 0.103981 0)
(0.000358878 0.0776893 0)
(0.000333787 0.0498534 0)
(0.000130926 0.0209465 0)
(-0.000151031 -0.00846309 0)
(-0.000308161 -0.0381542 0)
(-0.000347954 -0.0680651 0)
(-0.000238772 -0.0981137 0)
(0.00012938 -0.128126 0)
(0.000671181 -0.15696 0)
(0.00107618 -0.18305 0)
(0.00101682 -0.205423 0)
(0.000575257 -0.224519 0)
(0.000195006 -0.24172 0)
(3.67224e-05 -0.25742 0)
(6.33249e-07 -0.271119 0)
(2.76044e-07 -0.282358 0)
(1.81809e-06 -0.2909 0)
(2.2475e-06 -0.296641 0)
(2.39145e-06 -0.299524 0)
(2.29062e-06 -0.299523 0)
(2.06991e-06 -0.296638 0)
(1.76722e-06 -0.290896 0)
(1.45494e-06 -0.282352 0)
(1.2763e-06 -0.27109 0)
(1.23899e-06 -0.257217 0)
(1.1565e-06 -0.240867 0)
(8.9949e-07 -0.222198 0)
(5.72809e-07 -0.201388 0)
(3.58708e-07 -0.178639 0)
(3.04232e-07 -0.15417 0)
(3.22579e-07 -0.128216 0)
(3.17767e-07 -0.101027 0)
(2.41313e-07 -0.072865 0)
(1.16504e-07 -0.0440014 0)
(4.14286e-08 -0.0147141 0)
(1.26741e-08 0.014715 0)
(-7.62472e-08 0.0440023 0)
(-1.92396e-07 0.0728658 0)
(-2.908e-07 0.101028 0)
(-3.89794e-07 0.128216 0)
(-5.03236e-07 0.15417 0)
(-6.28298e-07 0.17864 0)
(-7.66102e-07 0.201389 0)
(-9.20143e-07 0.222198 0)
(-1.09919e-06 0.240868 0)
(-1.32022e-06 0.257217 0)
(-1.60648e-06 0.27109 0)
(-1.97881e-06 0.282352 0)
(-2.43816e-06 0.290894 0)
(-2.94342e-06 0.296634 0)
(-3.39566e-06 0.299518 0)
(-3.66475e-06 0.299517 0)
(-3.12872e-06 0.296631 0)
(1.15659e-06 0.29089 0)
(-1.46204e-05 0.282273 0)
(-0.000181444 0.27051 0)
(-0.000719808 0.255161 0)
(-0.00129414 0.237223 0)
(-0.0010042 0.219409 0)
(0.000127584 0.20244 0)
(0.00104726 0.183839 0)
(0.00129977 0.161929 0)
(0.0011587 0.136998 0)
(0.000872043 0.109684 0)
(0.00057188 0.0808778 0)
(0.000276464 0.0513798 0)
(8.77665e-05 0.0216494 0)
(-4.57012e-05 -0.00774698 0)
(-0.000281746 -0.0365924 0)
(-0.000565865 -0.0648184 0)
(-0.000862365 -0.0923394 0)
(-0.00115082 -0.119425 0)
(-0.00129859 -0.14644 0)
(-0.00105768 -0.173506 0)
(-0.000148854 -0.200416 0)
(0.000983289 -0.225037 0)
(0.00128448 -0.244503 0)
(0.000721983 -0.259229 0)
(0.000191101 -0.271643 0)
(2.33116e-05 -0.282431 0)
(1.71169e-06 -0.290903 0)
(3.43756e-06 -0.296641 0)
(3.73579e-06 -0.299524 0)
(3.38599e-06 -0.299523 0)
(2.88911e-06 -0.296637 0)
(2.39888e-06 -0.290895 0)
(1.92029e-06 -0.282352 0)
(1.49389e-06 -0.27109 0)
(1.25853e-06 -0.257217 0)
(1.18408e-06 -0.240867 0)
(1.04621e-06 -0.222197 0)
(7.52928e-07 -0.201388 0)
(4.53189e-07 -0.178639 0)
(2.99948e-07 -0.154169 0)
(2.79905e-07 -0.128215 0)
(2.90682e-07 -0.101027 0)
(2.47777e-07 -0.0728649 0)
(1.4429e-07 -0.0440013 0)
(6.14025e-08 -0.014714 0)
(1.50997e-08 0.0147151 0)
(-7.90996e-08 0.0440024 0)
(-2.00503e-07 0.0728659 0)
(-3.02777e-07 0.101028 0)
(-4.02345e-07 0.128217 0)
(-5.11535e-07 0.154171 0)
(-6.32199e-07 0.17864 0)
(-7.7075e-07 0.201389 0)
(-9.37885e-07 0.222198 0)
(-1.15372e-06 0.240868 0)
(-1.44884e-06 0.257218 0)
(-1.85699e-06 0.27109 0)
(-2.40022e-06 0.282352 0)
(-3.07094e-06 0.290894 0)
(-3.81823e-06 0.296635 0)
(-4.58112e-06 0.299518 0)
(-4.39143e-06 0.299518 0)
(-2.23253e-06 0.29663 0)
(-6.71665e-05 0.290732 0)
(-0.000502438 0.281262 0)
(-0.00130997 0.268286 0)
(-0.00112609 0.254801 0)
(0.000529331 0.242624 0)
(0.00187927 0.228444 0)
(0.00200585 0.209266 0)
(0.00145244 0.185444 0)
(0.000746941 0.158446 0)
(0.000137759 0.129527 0)
(-0.000223477 0.099969 0)
(-0.000306531 0.0706367 0)
(-0.000242426 0.0414113 0)
(-8.95598e-05 0.0120679 0)
(0.000100717 -0.0173876 0)
(0.00024391 -0.0466045 0)
(0.000310944 -0.075095 0)
(0.000231947 -0.102069 0)
(-0.000126012 -0.126859 0)
(-0.000734262 -0.149821 0)
(-0.00144267 -0.171765 0)
(-0.00200431 -0.193494 0)
(-0.00189207 -0.216014 0)
(-0.000555066 -0.239206 0)
(0.0011034 -0.259683 0)
(0.00130155 -0.273868 0)
(0.000506997 -0.283402 0)
(7.63232e-05 -0.291049 0)
(6.60979e-06 -0.296645 0)
(4.94764e-06 -0.299523 0)
(4.66457e-06 -0.299523 0)
(3.81073e-06 -0.296637 0)
(3.01391e-06 -0.290895 0)
(2.36706e-06 -0.282352 0)
(1.8069e-06 -0.271089 0)
(1.35328e-06 -0.257216 0)
(1.13042e-06 -0.240867 0)
(1.04008e-06 -0.222197 0)
(8.5117e-07 -0.201388 0)
(5.52725e-07 -0.178639 0)
(3.20714e-07 -0.154169 0)
(2.40002e-07 -0.128215 0)
(2.45044e-07 -0.101026 0)
(2.30379e-07 -0.0728647 0)
(1.56417e-07 -0.0440012 0)
(7.51475e-08 -0.0147139 0)
(2.04862e-08 0.0147152 0)
(-7.72855e-08 0.0440025 0)
(-1.95828e-07 0.072866 0)
(-2.95949e-07 0.101028 0)
(-3.87821e-07 0.128217 0)
(-4.83864e-07 0.154171 0)
(-5.91427e-07 0.17864 0)
(-7.23254e-07 0.201389 0)
(-9.0021e-07 0.222199 0)
(-1.15611e-06 0.240868 0)
(-1.53279e-06 0.257218 0)
(-2.06434e-06 0.271091 0)
(-2.76208e-06 0.282353 0)
(-3.61648e-06 0.290895 0)
(-4.63377e-06 0.296636 0)
(-4.57887e-06 0.299521 0)
(-5.9893e-06 0.299518 0)
(-0.000148038 0.296408 0)
(-0.000896132 0.289436 0)
(-0.00154857 0.279733 0)
(-6.72981e-05 0.271163 0)
(0.00220802 0.262325 0)
(0.00257685 0.247862 0)
(0.00141934 0.226905 0)
(-2.25838e-05 0.201878 0)
(-0.000816568 0.176105 0)
(-0.000723771 0.151428 0)
(-0.000195366 0.127372 0)
(0.000252683 0.102429 0)
(0.000372876 0.0755223 0)
(0.000253598 0.0470325 0)
(7.31514e-05 0.0177437 0)
(-8.03099e-05 -0.0117126 0)
(-0.000249545 -0.0409867 0)
(-0.000369336 -0.0702241 0)
(-0.000250407 -0.0996504 0)
(0.000197661 -0.129095 0)
(0.000729198 -0.156939 0)
(0.000828664 -0.181163 0)
(4.01222e-05 -0.200825 0)
(-0.00140514 -0.217393 0)
(-0.00257662 -0.233844 0)
(-0.00222589 -0.252188 0)
(4.16063e-05 -0.271111 0)
(0.00153074 -0.284977 0)
(0.000893481 -0.292311 0)
(0.000155687 -0.296851 0)
(1.1295e-05 -0.299526 0)
(5.25027e-06 -0.299521 0)
(4.69123e-06 -0.296636 0)
(3.58299e-06 -0.290894 0)
(2.6926e-06 -0.282351 0)
(2.03376e-06 -0.271089 0)
(1.48399e-06 -0.257216 0)
(1.08743e-06 -0.240866 0)
(9.26737e-07 -0.222197 0)
(8.23236e-07 -0.201387 0)
(6.01045e-07 -0.178639 0)
(3.46779e-07 -0.154169 0)
(2.08471e-07 -0.128215 0)
(1.90227e-07 -0.101026 0)
(1.91809e-07 -0.0728646 0)
(1.46721e-07 -0.0440011 0)
(8.27518e-08 -0.0147138 0)
(2.83006e-08 0.0147153 0)
(-6.82498e-08 0.0440026 0)
(-1.77887e-07 0.0728661 0)
(-2.67483e-07 0.101028 0)
(-3.41586e-07 0.128217 0)
(-4.14941e-07 0.154171 0)
(-4.99499e-07 0.17864 0)
(-6.15373e-07 0.201389 0)
(-7.96024e-07 0.222199 0)
(-1.08845e-06 0.240869 0)
(-1.53739e-06 0.257219 0)
(-2.16129e-06 0.271091 0)
(-2.94805e-06 0.282353 0)
(-3.92666e-06 0.290896 0)
(-3.86052e-06 0.296638 0)
(-5.51248e-06 0.299523 0)
(-0.000217358 0.299288 0)
(-0.00122075 0.295118 0)
(-0.00147873 0.288915 0)
(0.00111784 0.284251 0)
(0.00327181 0.277153 0)
(0.0020647 0.261882 0)
(-0.000243741 0.240717 0)
(-0.0011855 0.219282 0)
(-0.000427485 0.200038 0)
(0.000643129 0.180399 0)
(0.000859148 0.15684 0)
(0.00038703 0.129079 0)
(-0.000151438 0.0988935 0)
(-0.000386819 0.0683352 0)
(-0.000355122 0.0382749 0)
(-0.000182989 0.00835117 0)
(0.000142991 -0.021046 0)
(0.000365332 -0.0497002 0)
(0.000388729 -0.0773615 0)
(0.00015427 -0.103123 0)
(-0.000381001 -0.127326 0)
(-0.000853148 -0.151505 0)
(-0.000639944 -0.176927 0)
(0.000431453 -0.202799 0)
(0.00119859 -0.225117 0)
(0.000264714 -0.24093 0)
(-0.00205266 -0.252455 0)
(-0.00327947 -0.265049 0)
(-0.00113832 -0.280559 0)
(0.00145769 -0.292908 0)
(0.00121212 -0.298118 0)
(0.00022284 -0.299737 0)
(1.11158e-05 -0.29952 0)
(4.50671e-06 -0.296634 0)
(3.94815e-06 -0.290893 0)
(2.87297e-06 -0.28235 0)
(2.08186e-06 -0.271088 0)
(1.50641e-06 -0.257216 0)
(1.04067e-06 -0.240866 0)
(7.70259e-07 -0.222196 0)
(6.81684e-07 -0.201387 0)
(5.59421e-07 -0.178638 0)
(3.46986e-07 -0.154169 0)
(1.80657e-07 -0.128215 0)
(1.34128e-07 -0.101026 0)
(1.39563e-07 -0.0728645 0)
(1.16437e-07 -0.044001 0)
(7.96525e-08 -0.0147137 0)
(3.20538e-08 0.0147153 0)
(-4.86659e-08 0.0440026 0)
(-1.45081e-07 0.0728662 0)
(-2.15772e-07 0.101028 0)
(-2.62728e-07 0.128217 0)
(-3.03699e-07 0.154171 0)
(-3.5405e-07 0.178641 0)
(-4.42115e-07 0.20139 0)
(-6.13659e-07 0.222199 0)
(-9.2346e-07 0.240869 0)
(-1.40995e-06 0.257219 0)
(-2.06785e-06 0.271092 0)
(-2.85551e-06 0.282354 0)
(-2.6684e-06 0.290898 0)
(-1.84221e-06 0.296645 0)
(-0.000229262 0.299349 0)
(-0.00145533 0.298121 0)
(-0.00136425 0.295219 0)
(0.002077 0.293612 0)
(0.00367982 0.287748 0)
(0.000952283 0.272898 0)
(-0.00138114 0.254783 0)
(-0.00073178 0.239227 0)
(0.000822777 0.223853 0)
(0.000791895 0.203074 0)
(-0.00044892 0.176557 0)
(-0.00133334 0.148021 0)
(-0.00140929 0.119973 0)
(-0.00111705 0.0923396 0)
(-0.000767983 0.0646535 0)
(-0.000384553 0.0366594 0)
(-8.46055e-05 0.00775356 0)
(0.000102648 -0.0216561 0)
(0.000353586 -0.0513488 0)
(0.00074801 -0.0810935 0)
(0.00110347 -0.109724 0)
(0.00140208 -0.136438 0)
(0.00133504 -0.160261 0)
(0.000458095 -0.18065 0)
(-0.000783432 -0.199676 0)
(-0.000818798 -0.220599 0)
(0.000739732 -0.242578 0)
(0.00140059 -0.259619 0)
(-0.000935418 -0.269165 0)
(-0.00368048 -0.276928 0)
(-0.00208853 -0.288277 0)
(0.00134472 -0.298101 0)
(0.00144261 -0.300889 0)
(0.000234307 -0.299677 0)
(7.15992e-06 -0.296629 0)
(3.15362e-06 -0.290891 0)
(2.81834e-06 -0.282349 0)
(1.95312e-06 -0.271087 0)
(1.33217e-06 -0.257215 0)
(8.91693e-07 -0.240865 0)
(5.8212e-07 -0.222196 0)
(4.67536e-07 -0.201387 0)
(4.23558e-07 -0.178638 0)
(2.95584e-07 -0.154169 0)
(1.44391e-07 -0.128215 0)
(8.00608e-08 -0.101026 0)
(8.23147e-08 -0.0728644 0)
(7.48856e-08 -0.0440009 0)
(6.11985e-08 -0.0147136 0)
(2.90648e-08 0.0147154 0)
(-2.12865e-08 0.0440027 0)
(-9.76262e-08 0.0728663 0)
(-1.42004e-07 0.101028 0)
(-1.54765e-07 0.128217 0)
(-1.54572e-07 0.154171 0)
(-1.59403e-07 0.178641 0)
(-2.04455e-07 0.20139 0)
(-3.40461e-07 0.2222 0)
(-6.18605e-07 0.24087 0)
(-1.07395e-06 0.25722 0)
(-1.73263e-06 0.271093 0)
(-1.82104e-06 0.282356 0)
(3.71925e-06 0.290905 0)
(-0.000174679 0.296558 0)
(-0.00146992 0.298443 0)
(-0.00150641 0.298285 0)
(0.00263681 0.299361 0)
(0.00396954 0.295381 0)
(-1.07639e-05 0.282365 0)
(-0.00168321 0.268578 0)
(0.000179142 0.257351 0)
(0.00110187 0.242698 0)
(-0.000546493 0.220685 0)
(-0.00219433 0.195213 0)
(-0.00216078 0.17112 0)
(-0.00135511 0.14832 0)
(-0.000508621 0.125557 0)
(0.000125866 0.101736 0)
(0.000345585 0.0757919 0)
(0.000322057 0.0480421 0)
(0.000140253 0.019099 0)
(-0.000129702 -0.0103495 0)
(-0.00032289 -0.0399745 0)
(-0.000352823 -0.069959 0)
(-0.000139064 -0.100355 0)
(0.000491752 -0.130933 0)